
 11882 atoms
3 atom types

     0.000000000   135.311000000 xlo xhi
     0.000000000   117.182763411 ylo yhi
     0.000000000    35.000000000 zlo zhi
    67.655500000     0.000000000     0.000000000 xy xz yz

 Masses

1    10.800000191
2    14.000000000
3    12.010000229

 Atoms

1 1 3 0.0 1.230100 0.710199 19.175000 0 0 0
2 1 3 0.0 2.460200 1.420397 19.175000 0 0 0
3 1 3 0.0 2.460200 2.840794 19.175000 0 0 0
4 1 3 0.0 3.690300 3.550993 19.175000 0 0 0
5 1 3 0.0 3.690300 4.971390 19.175000 0 0 0
6 1 3 0.0 4.920400 5.681588 19.175000 0 0 0
7 1 3 0.0 4.920400 7.101986 19.175000 0 0 0
8 1 3 0.0 6.150500 7.812184 19.175000 0 0 0
9 1 3 0.0 6.150500 9.232581 19.175000 0 0 0
10 1 3 0.0 7.380600 9.942780 19.175000 0 0 0
11 1 3 0.0 7.380600 11.363177 19.175000 0 0 0
12 1 3 0.0 8.610700 12.073376 19.175000 0 0 0
13 1 3 0.0 8.610700 13.493773 19.175000 0 0 0
14 1 3 0.0 9.840800 14.203971 19.175000 0 0 0
15 1 3 0.0 9.840800 15.624368 19.175000 0 0 0
16 1 3 0.0 11.070900 16.334567 19.175000 0 0 0
17 1 3 0.0 11.070900 17.754964 19.175000 0 0 0
18 1 3 0.0 12.301000 18.465163 19.175000 0 0 0
19 1 3 0.0 12.301000 19.885560 19.175000 0 0 0
20 1 3 0.0 13.531100 20.595758 19.175000 0 0 0
21 1 3 0.0 13.531100 22.016156 19.175000 0 0 0
22 1 3 0.0 14.761200 22.726354 19.175000 0 0 0
23 1 3 0.0 14.761200 24.146751 19.175000 0 0 0
24 1 3 0.0 15.991300 24.856950 19.175000 0 0 0
25 1 3 0.0 15.991300 26.277347 19.175000 0 0 0
26 1 3 0.0 17.221400 26.987545 19.175000 0 0 0
27 1 3 0.0 17.221400 28.407943 19.175000 0 0 0
28 1 3 0.0 18.451500 29.118141 19.175000 0 0 0
29 1 3 0.0 18.451500 30.538538 19.175000 0 0 0
30 1 3 0.0 19.681600 31.248737 19.175000 0 0 0
31 1 3 0.0 19.681600 32.669134 19.175000 0 0 0
32 1 3 0.0 20.911700 33.379333 19.175000 0 0 0
33 1 3 0.0 20.911700 34.799730 19.175000 0 0 0
34 1 3 0.0 22.141800 35.509928 19.175000 0 0 0
35 1 3 0.0 22.141800 36.930325 19.175000 0 0 0
36 1 3 0.0 23.371900 37.640524 19.175000 0 0 0
37 1 3 0.0 23.371900 39.060921 19.175000 0 0 0
38 1 3 0.0 24.602000 39.771120 19.175000 0 0 0
39 1 3 0.0 24.602000 41.191517 19.175000 0 0 0
40 1 3 0.0 25.832100 41.901715 19.175000 0 0 0
41 1 3 0.0 25.832100 43.322113 19.175000 0 0 0
42 1 3 0.0 27.062200 44.032311 19.175000 0 0 0
43 1 3 0.0 27.062200 45.452708 19.175000 0 0 0
44 1 3 0.0 28.292300 46.162907 19.175000 0 0 0
45 1 3 0.0 28.292300 47.583304 19.175000 0 0 0
46 1 3 0.0 29.522400 48.293502 19.175000 0 0 0
47 1 3 0.0 29.522400 49.713900 19.175000 0 0 0
48 1 3 0.0 30.752500 50.424098 19.175000 0 0 0
49 1 3 0.0 30.752500 51.844495 19.175000 0 0 0
50 1 3 0.0 31.982600 52.554694 19.175000 0 0 0
51 1 3 0.0 31.982600 53.975091 19.175000 0 0 0
52 1 3 0.0 33.212700 54.685290 19.175000 0 0 0
53 1 3 0.0 33.212700 56.105687 19.175000 0 0 0
54 1 3 0.0 34.442800 56.815885 19.175000 0 0 0
55 1 3 0.0 34.442800 58.236282 19.175000 0 0 0
56 1 3 0.0 35.672900 58.946481 19.175000 0 0 0
57 1 3 0.0 35.672900 60.366878 19.175000 0 0 0
58 1 3 0.0 36.903000 61.077077 19.175000 0 0 0
59 1 3 0.0 36.903000 62.497474 19.175000 0 0 0
60 1 3 0.0 38.133100 63.207672 19.175000 0 0 0
61 1 3 0.0 38.133100 64.628070 19.175000 0 0 0
62 1 3 0.0 39.363200 65.338268 19.175000 0 0 0
63 1 3 0.0 39.363200 66.758665 19.175000 0 0 0
64 1 3 0.0 40.593300 67.468864 19.175000 0 0 0
65 1 3 0.0 40.593300 68.889261 19.175000 0 0 0
66 1 3 0.0 41.823400 69.599459 19.175000 0 0 0
67 1 3 0.0 41.823400 71.019857 19.175000 0 0 0
68 1 3 0.0 43.053500 71.730055 19.175000 0 0 0
69 1 3 0.0 43.053500 73.150452 19.175000 0 0 0
70 1 3 0.0 44.283600 73.860651 19.175000 0 0 0
71 1 3 0.0 44.283600 75.281048 19.175000 0 0 0
72 1 3 0.0 45.513700 75.991247 19.175000 0 0 0
73 1 3 0.0 45.513700 77.411644 19.175000 0 0 0
74 1 3 0.0 46.743800 78.121842 19.175000 0 0 0
75 1 3 0.0 46.743800 79.542239 19.175000 0 0 0
76 1 3 0.0 47.973900 80.252438 19.175000 0 0 0
77 1 3 0.0 47.973900 81.672835 19.175000 0 0 0
78 1 3 0.0 49.204000 82.383034 19.175000 0 0 0
79 1 3 0.0 49.204000 83.803431 19.175000 0 0 0
80 1 3 0.0 50.434100 84.513629 19.175000 0 0 0
81 1 3 0.0 50.434100 85.934026 19.175000 0 0 0
82 1 3 0.0 51.664200 86.644225 19.175000 0 0 0
83 1 3 0.0 51.664200 88.064622 19.175000 0 0 0
84 1 3 0.0 52.894300 88.774821 19.175000 0 0 0
85 1 3 0.0 52.894300 90.195218 19.175000 0 0 0
86 1 3 0.0 54.124400 90.905416 19.175000 0 0 0
87 1 3 0.0 54.124400 92.325814 19.175000 0 0 0
88 1 3 0.0 55.354500 93.036012 19.175000 0 0 0
89 1 3 0.0 55.354500 94.456409 19.175000 0 0 0
90 1 3 0.0 56.584600 95.166608 19.175000 0 0 0
91 1 3 0.0 56.584600 96.587005 19.175000 0 0 0
92 1 3 0.0 57.814700 97.297204 19.175000 0 0 0
93 1 3 0.0 57.814700 98.717601 19.175000 0 0 0
94 1 3 0.0 59.044800 99.427799 19.175000 0 0 0
95 1 3 0.0 59.044800 100.848196 19.175000 0 0 0
96 1 3 0.0 60.274900 101.558395 19.175000 0 0 0
97 1 3 0.0 60.274900 102.978792 19.175000 0 0 0
98 1 3 0.0 61.505000 103.688991 19.175000 0 0 0
99 1 3 0.0 61.505000 105.109388 19.175000 0 0 0
100 1 3 0.0 62.735100 105.819586 19.175000 0 0 0
101 1 3 0.0 62.735100 107.239983 19.175000 0 0 0
102 1 3 0.0 63.965200 107.950182 19.175000 0 0 0
103 1 3 0.0 63.965200 109.370579 19.175000 0 0 0
104 1 3 0.0 65.195300 110.080778 19.175000 0 0 0
105 1 3 0.0 65.195300 111.501175 19.175000 0 0 0
106 1 3 0.0 66.425400 112.211373 19.175000 0 0 0
107 1 3 0.0 66.425400 113.631771 19.175000 0 0 0
108 1 3 0.0 67.655500 114.341969 19.175000 0 0 0
109 1 3 0.0 67.655500 115.762366 19.175000 0 0 0
110 1 3 0.0 68.885600 116.472565 19.175000 0 0 0
111 1 3 0.0 3.690300 0.710199 19.175000 0 0 0
112 1 3 0.0 4.920400 1.420397 19.175000 0 0 0
113 1 3 0.0 4.920400 2.840794 19.175000 0 0 0
114 1 3 0.0 6.150500 3.550993 19.175000 0 0 0
115 1 3 0.0 6.150500 4.971390 19.175000 0 0 0
116 1 3 0.0 7.380600 5.681588 19.175000 0 0 0
117 1 3 0.0 7.380600 7.101986 19.175000 0 0 0
118 1 3 0.0 8.610700 7.812184 19.175000 0 0 0
119 1 3 0.0 8.610700 9.232581 19.175000 0 0 0
120 1 3 0.0 9.840800 9.942780 19.175000 0 0 0
121 1 3 0.0 9.840800 11.363177 19.175000 0 0 0
122 1 3 0.0 11.070900 12.073376 19.175000 0 0 0
123 1 3 0.0 11.070900 13.493773 19.175000 0 0 0
124 1 3 0.0 12.301000 14.203971 19.175000 0 0 0
125 1 3 0.0 12.301000 15.624368 19.175000 0 0 0
126 1 3 0.0 13.531100 16.334567 19.175000 0 0 0
127 1 3 0.0 13.531100 17.754964 19.175000 0 0 0
128 1 3 0.0 14.761200 18.465163 19.175000 0 0 0
129 1 3 0.0 14.761200 19.885560 19.175000 0 0 0
130 1 3 0.0 15.991300 20.595758 19.175000 0 0 0
131 1 3 0.0 15.991300 22.016156 19.175000 0 0 0
132 1 3 0.0 17.221400 22.726354 19.175000 0 0 0
133 1 3 0.0 17.221400 24.146751 19.175000 0 0 0
134 1 3 0.0 18.451500 24.856950 19.175000 0 0 0
135 1 3 0.0 18.451500 26.277347 19.175000 0 0 0
136 1 3 0.0 19.681600 26.987545 19.175000 0 0 0
137 1 3 0.0 19.681600 28.407943 19.175000 0 0 0
138 1 3 0.0 20.911700 29.118141 19.175000 0 0 0
139 1 3 0.0 20.911700 30.538538 19.175000 0 0 0
140 1 3 0.0 22.141800 31.248737 19.175000 0 0 0
141 1 3 0.0 22.141800 32.669134 19.175000 0 0 0
142 1 3 0.0 23.371900 33.379333 19.175000 0 0 0
143 1 3 0.0 23.371900 34.799730 19.175000 0 0 0
144 1 3 0.0 24.602000 35.509928 19.175000 0 0 0
145 1 3 0.0 24.602000 36.930325 19.175000 0 0 0
146 1 3 0.0 25.832100 37.640524 19.175000 0 0 0
147 1 3 0.0 25.832100 39.060921 19.175000 0 0 0
148 1 3 0.0 27.062200 39.771120 19.175000 0 0 0
149 1 3 0.0 27.062200 41.191517 19.175000 0 0 0
150 1 3 0.0 28.292300 41.901715 19.175000 0 0 0
151 1 3 0.0 28.292300 43.322113 19.175000 0 0 0
152 1 3 0.0 29.522400 44.032311 19.175000 0 0 0
153 1 3 0.0 29.522400 45.452708 19.175000 0 0 0
154 1 3 0.0 30.752500 46.162907 19.175000 0 0 0
155 1 3 0.0 30.752500 47.583304 19.175000 0 0 0
156 1 3 0.0 31.982600 48.293502 19.175000 0 0 0
157 1 3 0.0 31.982600 49.713900 19.175000 0 0 0
158 1 3 0.0 33.212700 50.424098 19.175000 0 0 0
159 1 3 0.0 33.212700 51.844495 19.175000 0 0 0
160 1 3 0.0 34.442800 52.554694 19.175000 0 0 0
161 1 3 0.0 34.442800 53.975091 19.175000 0 0 0
162 1 3 0.0 35.672900 54.685290 19.175000 0 0 0
163 1 3 0.0 35.672900 56.105687 19.175000 0 0 0
164 1 3 0.0 36.903000 56.815885 19.175000 0 0 0
165 1 3 0.0 36.903000 58.236282 19.175000 0 0 0
166 1 3 0.0 38.133100 58.946481 19.175000 0 0 0
167 1 3 0.0 38.133100 60.366878 19.175000 0 0 0
168 1 3 0.0 39.363200 61.077077 19.175000 0 0 0
169 1 3 0.0 39.363200 62.497474 19.175000 0 0 0
170 1 3 0.0 40.593300 63.207672 19.175000 0 0 0
171 1 3 0.0 40.593300 64.628070 19.175000 0 0 0
172 1 3 0.0 41.823400 65.338268 19.175000 0 0 0
173 1 3 0.0 41.823400 66.758665 19.175000 0 0 0
174 1 3 0.0 43.053500 67.468864 19.175000 0 0 0
175 1 3 0.0 43.053500 68.889261 19.175000 0 0 0
176 1 3 0.0 44.283600 69.599459 19.175000 0 0 0
177 1 3 0.0 44.283600 71.019857 19.175000 0 0 0
178 1 3 0.0 45.513700 71.730055 19.175000 0 0 0
179 1 3 0.0 45.513700 73.150452 19.175000 0 0 0
180 1 3 0.0 46.743800 73.860651 19.175000 0 0 0
181 1 3 0.0 46.743800 75.281048 19.175000 0 0 0
182 1 3 0.0 47.973900 75.991247 19.175000 0 0 0
183 1 3 0.0 47.973900 77.411644 19.175000 0 0 0
184 1 3 0.0 49.204000 78.121842 19.175000 0 0 0
185 1 3 0.0 49.204000 79.542239 19.175000 0 0 0
186 1 3 0.0 50.434100 80.252438 19.175000 0 0 0
187 1 3 0.0 50.434100 81.672835 19.175000 0 0 0
188 1 3 0.0 51.664200 82.383034 19.175000 0 0 0
189 1 3 0.0 51.664200 83.803431 19.175000 0 0 0
190 1 3 0.0 52.894300 84.513629 19.175000 0 0 0
191 1 3 0.0 52.894300 85.934026 19.175000 0 0 0
192 1 3 0.0 54.124400 86.644225 19.175000 0 0 0
193 1 3 0.0 54.124400 88.064622 19.175000 0 0 0
194 1 3 0.0 55.354500 88.774821 19.175000 0 0 0
195 1 3 0.0 55.354500 90.195218 19.175000 0 0 0
196 1 3 0.0 56.584600 90.905416 19.175000 0 0 0
197 1 3 0.0 56.584600 92.325814 19.175000 0 0 0
198 1 3 0.0 57.814700 93.036012 19.175000 0 0 0
199 1 3 0.0 57.814700 94.456409 19.175000 0 0 0
200 1 3 0.0 59.044800 95.166608 19.175000 0 0 0
201 1 3 0.0 59.044800 96.587005 19.175000 0 0 0
202 1 3 0.0 60.274900 97.297204 19.175000 0 0 0
203 1 3 0.0 60.274900 98.717601 19.175000 0 0 0
204 1 3 0.0 61.505000 99.427799 19.175000 0 0 0
205 1 3 0.0 61.505000 100.848196 19.175000 0 0 0
206 1 3 0.0 62.735100 101.558395 19.175000 0 0 0
207 1 3 0.0 62.735100 102.978792 19.175000 0 0 0
208 1 3 0.0 63.965200 103.688991 19.175000 0 0 0
209 1 3 0.0 63.965200 105.109388 19.175000 0 0 0
210 1 3 0.0 65.195300 105.819586 19.175000 0 0 0
211 1 3 0.0 65.195300 107.239983 19.175000 0 0 0
212 1 3 0.0 66.425400 107.950182 19.175000 0 0 0
213 1 3 0.0 66.425400 109.370579 19.175000 0 0 0
214 1 3 0.0 67.655500 110.080778 19.175000 0 0 0
215 1 3 0.0 67.655500 111.501175 19.175000 0 0 0
216 1 3 0.0 68.885600 112.211373 19.175000 0 0 0
217 1 3 0.0 68.885600 113.631771 19.175000 0 0 0
218 1 3 0.0 70.115700 114.341969 19.175000 0 0 0
219 1 3 0.0 70.115700 115.762366 19.175000 0 0 0
220 1 3 0.0 71.345800 116.472565 19.175000 0 0 0
221 1 3 0.0 6.150500 0.710199 19.175000 0 0 0
222 1 3 0.0 7.380600 1.420397 19.175000 0 0 0
223 1 3 0.0 7.380600 2.840794 19.175000 0 0 0
224 1 3 0.0 8.610700 3.550993 19.175000 0 0 0
225 1 3 0.0 8.610700 4.971390 19.175000 0 0 0
226 1 3 0.0 9.840800 5.681588 19.175000 0 0 0
227 1 3 0.0 9.840800 7.101986 19.175000 0 0 0
228 1 3 0.0 11.070900 7.812184 19.175000 0 0 0
229 1 3 0.0 11.070900 9.232581 19.175000 0 0 0
230 1 3 0.0 12.301000 9.942780 19.175000 0 0 0
231 1 3 0.0 12.301000 11.363177 19.175000 0 0 0
232 1 3 0.0 13.531100 12.073376 19.175000 0 0 0
233 1 3 0.0 13.531100 13.493773 19.175000 0 0 0
234 1 3 0.0 14.761200 14.203971 19.175000 0 0 0
235 1 3 0.0 14.761200 15.624368 19.175000 0 0 0
236 1 3 0.0 15.991300 16.334567 19.175000 0 0 0
237 1 3 0.0 15.991300 17.754964 19.175000 0 0 0
238 1 3 0.0 17.221400 18.465163 19.175000 0 0 0
239 1 3 0.0 17.221400 19.885560 19.175000 0 0 0
240 1 3 0.0 18.451500 20.595758 19.175000 0 0 0
241 1 3 0.0 18.451500 22.016156 19.175000 0 0 0
242 1 3 0.0 19.681600 22.726354 19.175000 0 0 0
243 1 3 0.0 19.681600 24.146751 19.175000 0 0 0
244 1 3 0.0 20.911700 24.856950 19.175000 0 0 0
245 1 3 0.0 20.911700 26.277347 19.175000 0 0 0
246 1 3 0.0 22.141800 26.987545 19.175000 0 0 0
247 1 3 0.0 22.141800 28.407943 19.175000 0 0 0
248 1 3 0.0 23.371900 29.118141 19.175000 0 0 0
249 1 3 0.0 23.371900 30.538538 19.175000 0 0 0
250 1 3 0.0 24.602000 31.248737 19.175000 0 0 0
251 1 3 0.0 24.602000 32.669134 19.175000 0 0 0
252 1 3 0.0 25.832100 33.379333 19.175000 0 0 0
253 1 3 0.0 25.832100 34.799730 19.175000 0 0 0
254 1 3 0.0 27.062200 35.509928 19.175000 0 0 0
255 1 3 0.0 27.062200 36.930325 19.175000 0 0 0
256 1 3 0.0 28.292300 37.640524 19.175000 0 0 0
257 1 3 0.0 28.292300 39.060921 19.175000 0 0 0
258 1 3 0.0 29.522400 39.771120 19.175000 0 0 0
259 1 3 0.0 29.522400 41.191517 19.175000 0 0 0
260 1 3 0.0 30.752500 41.901715 19.175000 0 0 0
261 1 3 0.0 30.752500 43.322113 19.175000 0 0 0
262 1 3 0.0 31.982600 44.032311 19.175000 0 0 0
263 1 3 0.0 31.982600 45.452708 19.175000 0 0 0
264 1 3 0.0 33.212700 46.162907 19.175000 0 0 0
265 1 3 0.0 33.212700 47.583304 19.175000 0 0 0
266 1 3 0.0 34.442800 48.293502 19.175000 0 0 0
267 1 3 0.0 34.442800 49.713900 19.175000 0 0 0
268 1 3 0.0 35.672900 50.424098 19.175000 0 0 0
269 1 3 0.0 35.672900 51.844495 19.175000 0 0 0
270 1 3 0.0 36.903000 52.554694 19.175000 0 0 0
271 1 3 0.0 36.903000 53.975091 19.175000 0 0 0
272 1 3 0.0 38.133100 54.685290 19.175000 0 0 0
273 1 3 0.0 38.133100 56.105687 19.175000 0 0 0
274 1 3 0.0 39.363200 56.815885 19.175000 0 0 0
275 1 3 0.0 39.363200 58.236282 19.175000 0 0 0
276 1 3 0.0 40.593300 58.946481 19.175000 0 0 0
277 1 3 0.0 40.593300 60.366878 19.175000 0 0 0
278 1 3 0.0 41.823400 61.077077 19.175000 0 0 0
279 1 3 0.0 41.823400 62.497474 19.175000 0 0 0
280 1 3 0.0 43.053500 63.207672 19.175000 0 0 0
281 1 3 0.0 43.053500 64.628070 19.175000 0 0 0
282 1 3 0.0 44.283600 65.338268 19.175000 0 0 0
283 1 3 0.0 44.283600 66.758665 19.175000 0 0 0
284 1 3 0.0 45.513700 67.468864 19.175000 0 0 0
285 1 3 0.0 45.513700 68.889261 19.175000 0 0 0
286 1 3 0.0 46.743800 69.599459 19.175000 0 0 0
287 1 3 0.0 46.743800 71.019857 19.175000 0 0 0
288 1 3 0.0 47.973900 71.730055 19.175000 0 0 0
289 1 3 0.0 47.973900 73.150452 19.175000 0 0 0
290 1 3 0.0 49.204000 73.860651 19.175000 0 0 0
291 1 3 0.0 49.204000 75.281048 19.175000 0 0 0
292 1 3 0.0 50.434100 75.991247 19.175000 0 0 0
293 1 3 0.0 50.434100 77.411644 19.175000 0 0 0
294 1 3 0.0 51.664200 78.121842 19.175000 0 0 0
295 1 3 0.0 51.664200 79.542239 19.175000 0 0 0
296 1 3 0.0 52.894300 80.252438 19.175000 0 0 0
297 1 3 0.0 52.894300 81.672835 19.175000 0 0 0
298 1 3 0.0 54.124400 82.383034 19.175000 0 0 0
299 1 3 0.0 54.124400 83.803431 19.175000 0 0 0
300 1 3 0.0 55.354500 84.513629 19.175000 0 0 0
301 1 3 0.0 55.354500 85.934026 19.175000 0 0 0
302 1 3 0.0 56.584600 86.644225 19.175000 0 0 0
303 1 3 0.0 56.584600 88.064622 19.175000 0 0 0
304 1 3 0.0 57.814700 88.774821 19.175000 0 0 0
305 1 3 0.0 57.814700 90.195218 19.175000 0 0 0
306 1 3 0.0 59.044800 90.905416 19.175000 0 0 0
307 1 3 0.0 59.044800 92.325814 19.175000 0 0 0
308 1 3 0.0 60.274900 93.036012 19.175000 0 0 0
309 1 3 0.0 60.274900 94.456409 19.175000 0 0 0
310 1 3 0.0 61.505000 95.166608 19.175000 0 0 0
311 1 3 0.0 61.505000 96.587005 19.175000 0 0 0
312 1 3 0.0 62.735100 97.297204 19.175000 0 0 0
313 1 3 0.0 62.735100 98.717601 19.175000 0 0 0
314 1 3 0.0 63.965200 99.427799 19.175000 0 0 0
315 1 3 0.0 63.965200 100.848196 19.175000 0 0 0
316 1 3 0.0 65.195300 101.558395 19.175000 0 0 0
317 1 3 0.0 65.195300 102.978792 19.175000 0 0 0
318 1 3 0.0 66.425400 103.688991 19.175000 0 0 0
319 1 3 0.0 66.425400 105.109388 19.175000 0 0 0
320 1 3 0.0 67.655500 105.819586 19.175000 0 0 0
321 1 3 0.0 67.655500 107.239983 19.175000 0 0 0
322 1 3 0.0 68.885600 107.950182 19.175000 0 0 0
323 1 3 0.0 68.885600 109.370579 19.175000 0 0 0
324 1 3 0.0 70.115700 110.080778 19.175000 0 0 0
325 1 3 0.0 70.115700 111.501175 19.175000 0 0 0
326 1 3 0.0 71.345800 112.211373 19.175000 0 0 0
327 1 3 0.0 71.345800 113.631771 19.175000 0 0 0
328 1 3 0.0 72.575900 114.341969 19.175000 0 0 0
329 1 3 0.0 72.575900 115.762366 19.175000 0 0 0
330 1 3 0.0 73.806000 116.472565 19.175000 0 0 0
331 1 3 0.0 8.610700 0.710199 19.175000 0 0 0
332 1 3 0.0 9.840800 1.420397 19.175000 0 0 0
333 1 3 0.0 9.840800 2.840794 19.175000 0 0 0
334 1 3 0.0 11.070900 3.550993 19.175000 0 0 0
335 1 3 0.0 11.070900 4.971390 19.175000 0 0 0
336 1 3 0.0 12.301000 5.681588 19.175000 0 0 0
337 1 3 0.0 12.301000 7.101986 19.175000 0 0 0
338 1 3 0.0 13.531100 7.812184 19.175000 0 0 0
339 1 3 0.0 13.531100 9.232581 19.175000 0 0 0
340 1 3 0.0 14.761200 9.942780 19.175000 0 0 0
341 1 3 0.0 14.761200 11.363177 19.175000 0 0 0
342 1 3 0.0 15.991300 12.073376 19.175000 0 0 0
343 1 3 0.0 15.991300 13.493773 19.175000 0 0 0
344 1 3 0.0 17.221400 14.203971 19.175000 0 0 0
345 1 3 0.0 17.221400 15.624368 19.175000 0 0 0
346 1 3 0.0 18.451500 16.334567 19.175000 0 0 0
347 1 3 0.0 18.451500 17.754964 19.175000 0 0 0
348 1 3 0.0 19.681600 18.465163 19.175000 0 0 0
349 1 3 0.0 19.681600 19.885560 19.175000 0 0 0
350 1 3 0.0 20.911700 20.595758 19.175000 0 0 0
351 1 3 0.0 20.911700 22.016156 19.175000 0 0 0
352 1 3 0.0 22.141800 22.726354 19.175000 0 0 0
353 1 3 0.0 22.141800 24.146751 19.175000 0 0 0
354 1 3 0.0 23.371900 24.856950 19.175000 0 0 0
355 1 3 0.0 23.371900 26.277347 19.175000 0 0 0
356 1 3 0.0 24.602000 26.987545 19.175000 0 0 0
357 1 3 0.0 24.602000 28.407943 19.175000 0 0 0
358 1 3 0.0 25.832100 29.118141 19.175000 0 0 0
359 1 3 0.0 25.832100 30.538538 19.175000 0 0 0
360 1 3 0.0 27.062200 31.248737 19.175000 0 0 0
361 1 3 0.0 27.062200 32.669134 19.175000 0 0 0
362 1 3 0.0 28.292300 33.379333 19.175000 0 0 0
363 1 3 0.0 28.292300 34.799730 19.175000 0 0 0
364 1 3 0.0 29.522400 35.509928 19.175000 0 0 0
365 1 3 0.0 29.522400 36.930325 19.175000 0 0 0
366 1 3 0.0 30.752500 37.640524 19.175000 0 0 0
367 1 3 0.0 30.752500 39.060921 19.175000 0 0 0
368 1 3 0.0 31.982600 39.771120 19.175000 0 0 0
369 1 3 0.0 31.982600 41.191517 19.175000 0 0 0
370 1 3 0.0 33.212700 41.901715 19.175000 0 0 0
371 1 3 0.0 33.212700 43.322113 19.175000 0 0 0
372 1 3 0.0 34.442800 44.032311 19.175000 0 0 0
373 1 3 0.0 34.442800 45.452708 19.175000 0 0 0
374 1 3 0.0 35.672900 46.162907 19.175000 0 0 0
375 1 3 0.0 35.672900 47.583304 19.175000 0 0 0
376 1 3 0.0 36.903000 48.293502 19.175000 0 0 0
377 1 3 0.0 36.903000 49.713900 19.175000 0 0 0
378 1 3 0.0 38.133100 50.424098 19.175000 0 0 0
379 1 3 0.0 38.133100 51.844495 19.175000 0 0 0
380 1 3 0.0 39.363200 52.554694 19.175000 0 0 0
381 1 3 0.0 39.363200 53.975091 19.175000 0 0 0
382 1 3 0.0 40.593300 54.685290 19.175000 0 0 0
383 1 3 0.0 40.593300 56.105687 19.175000 0 0 0
384 1 3 0.0 41.823400 56.815885 19.175000 0 0 0
385 1 3 0.0 41.823400 58.236282 19.175000 0 0 0
386 1 3 0.0 43.053500 58.946481 19.175000 0 0 0
387 1 3 0.0 43.053500 60.366878 19.175000 0 0 0
388 1 3 0.0 44.283600 61.077077 19.175000 0 0 0
389 1 3 0.0 44.283600 62.497474 19.175000 0 0 0
390 1 3 0.0 45.513700 63.207672 19.175000 0 0 0
391 1 3 0.0 45.513700 64.628070 19.175000 0 0 0
392 1 3 0.0 46.743800 65.338268 19.175000 0 0 0
393 1 3 0.0 46.743800 66.758665 19.175000 0 0 0
394 1 3 0.0 47.973900 67.468864 19.175000 0 0 0
395 1 3 0.0 47.973900 68.889261 19.175000 0 0 0
396 1 3 0.0 49.204000 69.599459 19.175000 0 0 0
397 1 3 0.0 49.204000 71.019857 19.175000 0 0 0
398 1 3 0.0 50.434100 71.730055 19.175000 0 0 0
399 1 3 0.0 50.434100 73.150452 19.175000 0 0 0
400 1 3 0.0 51.664200 73.860651 19.175000 0 0 0
401 1 3 0.0 51.664200 75.281048 19.175000 0 0 0
402 1 3 0.0 52.894300 75.991247 19.175000 0 0 0
403 1 3 0.0 52.894300 77.411644 19.175000 0 0 0
404 1 3 0.0 54.124400 78.121842 19.175000 0 0 0
405 1 3 0.0 54.124400 79.542239 19.175000 0 0 0
406 1 3 0.0 55.354500 80.252438 19.175000 0 0 0
407 1 3 0.0 55.354500 81.672835 19.175000 0 0 0
408 1 3 0.0 56.584600 82.383034 19.175000 0 0 0
409 1 3 0.0 56.584600 83.803431 19.175000 0 0 0
410 1 3 0.0 57.814700 84.513629 19.175000 0 0 0
411 1 3 0.0 57.814700 85.934026 19.175000 0 0 0
412 1 3 0.0 59.044800 86.644225 19.175000 0 0 0
413 1 3 0.0 59.044800 88.064622 19.175000 0 0 0
414 1 3 0.0 60.274900 88.774821 19.175000 0 0 0
415 1 3 0.0 60.274900 90.195218 19.175000 0 0 0
416 1 3 0.0 61.505000 90.905416 19.175000 0 0 0
417 1 3 0.0 61.505000 92.325814 19.175000 0 0 0
418 1 3 0.0 62.735100 93.036012 19.175000 0 0 0
419 1 3 0.0 62.735100 94.456409 19.175000 0 0 0
420 1 3 0.0 63.965200 95.166608 19.175000 0 0 0
421 1 3 0.0 63.965200 96.587005 19.175000 0 0 0
422 1 3 0.0 65.195300 97.297204 19.175000 0 0 0
423 1 3 0.0 65.195300 98.717601 19.175000 0 0 0
424 1 3 0.0 66.425400 99.427799 19.175000 0 0 0
425 1 3 0.0 66.425400 100.848196 19.175000 0 0 0
426 1 3 0.0 67.655500 101.558395 19.175000 0 0 0
427 1 3 0.0 67.655500 102.978792 19.175000 0 0 0
428 1 3 0.0 68.885600 103.688991 19.175000 0 0 0
429 1 3 0.0 68.885600 105.109388 19.175000 0 0 0
430 1 3 0.0 70.115700 105.819586 19.175000 0 0 0
431 1 3 0.0 70.115700 107.239983 19.175000 0 0 0
432 1 3 0.0 71.345800 107.950182 19.175000 0 0 0
433 1 3 0.0 71.345800 109.370579 19.175000 0 0 0
434 1 3 0.0 72.575900 110.080778 19.175000 0 0 0
435 1 3 0.0 72.575900 111.501175 19.175000 0 0 0
436 1 3 0.0 73.806000 112.211373 19.175000 0 0 0
437 1 3 0.0 73.806000 113.631771 19.175000 0 0 0
438 1 3 0.0 75.036100 114.341969 19.175000 0 0 0
439 1 3 0.0 75.036100 115.762366 19.175000 0 0 0
440 1 3 0.0 76.266200 116.472565 19.175000 0 0 0
441 1 3 0.0 11.070900 0.710199 19.175000 0 0 0
442 1 3 0.0 12.301000 1.420397 19.175000 0 0 0
443 1 3 0.0 12.301000 2.840794 19.175000 0 0 0
444 1 3 0.0 13.531100 3.550993 19.175000 0 0 0
445 1 3 0.0 13.531100 4.971390 19.175000 0 0 0
446 1 3 0.0 14.761200 5.681588 19.175000 0 0 0
447 1 3 0.0 14.761200 7.101986 19.175000 0 0 0
448 1 3 0.0 15.991300 7.812184 19.175000 0 0 0
449 1 3 0.0 15.991300 9.232581 19.175000 0 0 0
450 1 3 0.0 17.221400 9.942780 19.175000 0 0 0
451 1 3 0.0 17.221400 11.363177 19.175000 0 0 0
452 1 3 0.0 18.451500 12.073376 19.175000 0 0 0
453 1 3 0.0 18.451500 13.493773 19.175000 0 0 0
454 1 3 0.0 19.681600 14.203971 19.175000 0 0 0
455 1 3 0.0 19.681600 15.624368 19.175000 0 0 0
456 1 3 0.0 20.911700 16.334567 19.175000 0 0 0
457 1 3 0.0 20.911700 17.754964 19.175000 0 0 0
458 1 3 0.0 22.141800 18.465163 19.175000 0 0 0
459 1 3 0.0 22.141800 19.885560 19.175000 0 0 0
460 1 3 0.0 23.371900 20.595758 19.175000 0 0 0
461 1 3 0.0 23.371900 22.016156 19.175000 0 0 0
462 1 3 0.0 24.602000 22.726354 19.175000 0 0 0
463 1 3 0.0 24.602000 24.146751 19.175000 0 0 0
464 1 3 0.0 25.832100 24.856950 19.175000 0 0 0
465 1 3 0.0 25.832100 26.277347 19.175000 0 0 0
466 1 3 0.0 27.062200 26.987545 19.175000 0 0 0
467 1 3 0.0 27.062200 28.407943 19.175000 0 0 0
468 1 3 0.0 28.292300 29.118141 19.175000 0 0 0
469 1 3 0.0 28.292300 30.538538 19.175000 0 0 0
470 1 3 0.0 29.522400 31.248737 19.175000 0 0 0
471 1 3 0.0 29.522400 32.669134 19.175000 0 0 0
472 1 3 0.0 30.752500 33.379333 19.175000 0 0 0
473 1 3 0.0 30.752500 34.799730 19.175000 0 0 0
474 1 3 0.0 31.982600 35.509928 19.175000 0 0 0
475 1 3 0.0 31.982600 36.930325 19.175000 0 0 0
476 1 3 0.0 33.212700 37.640524 19.175000 0 0 0
477 1 3 0.0 33.212700 39.060921 19.175000 0 0 0
478 1 3 0.0 34.442800 39.771120 19.175000 0 0 0
479 1 3 0.0 34.442800 41.191517 19.175000 0 0 0
480 1 3 0.0 35.672900 41.901715 19.175000 0 0 0
481 1 3 0.0 35.672900 43.322113 19.175000 0 0 0
482 1 3 0.0 36.903000 44.032311 19.175000 0 0 0
483 1 3 0.0 36.903000 45.452708 19.175000 0 0 0
484 1 3 0.0 38.133100 46.162907 19.175000 0 0 0
485 1 3 0.0 38.133100 47.583304 19.175000 0 0 0
486 1 3 0.0 39.363200 48.293502 19.175000 0 0 0
487 1 3 0.0 39.363200 49.713900 19.175000 0 0 0
488 1 3 0.0 40.593300 50.424098 19.175000 0 0 0
489 1 3 0.0 40.593300 51.844495 19.175000 0 0 0
490 1 3 0.0 41.823400 52.554694 19.175000 0 0 0
491 1 3 0.0 41.823400 53.975091 19.175000 0 0 0
492 1 3 0.0 43.053500 54.685290 19.175000 0 0 0
493 1 3 0.0 43.053500 56.105687 19.175000 0 0 0
494 1 3 0.0 44.283600 56.815885 19.175000 0 0 0
495 1 3 0.0 44.283600 58.236282 19.175000 0 0 0
496 1 3 0.0 45.513700 58.946481 19.175000 0 0 0
497 1 3 0.0 45.513700 60.366878 19.175000 0 0 0
498 1 3 0.0 46.743800 61.077077 19.175000 0 0 0
499 1 3 0.0 46.743800 62.497474 19.175000 0 0 0
500 1 3 0.0 47.973900 63.207672 19.175000 0 0 0
501 1 3 0.0 47.973900 64.628070 19.175000 0 0 0
502 1 3 0.0 49.204000 65.338268 19.175000 0 0 0
503 1 3 0.0 49.204000 66.758665 19.175000 0 0 0
504 1 3 0.0 50.434100 67.468864 19.175000 0 0 0
505 1 3 0.0 50.434100 68.889261 19.175000 0 0 0
506 1 3 0.0 51.664200 69.599459 19.175000 0 0 0
507 1 3 0.0 51.664200 71.019857 19.175000 0 0 0
508 1 3 0.0 52.894300 71.730055 19.175000 0 0 0
509 1 3 0.0 52.894300 73.150452 19.175000 0 0 0
510 1 3 0.0 54.124400 73.860651 19.175000 0 0 0
511 1 3 0.0 54.124400 75.281048 19.175000 0 0 0
512 1 3 0.0 55.354500 75.991247 19.175000 0 0 0
513 1 3 0.0 55.354500 77.411644 19.175000 0 0 0
514 1 3 0.0 56.584600 78.121842 19.175000 0 0 0
515 1 3 0.0 56.584600 79.542239 19.175000 0 0 0
516 1 3 0.0 57.814700 80.252438 19.175000 0 0 0
517 1 3 0.0 57.814700 81.672835 19.175000 0 0 0
518 1 3 0.0 59.044800 82.383034 19.175000 0 0 0
519 1 3 0.0 59.044800 83.803431 19.175000 0 0 0
520 1 3 0.0 60.274900 84.513629 19.175000 0 0 0
521 1 3 0.0 60.274900 85.934026 19.175000 0 0 0
522 1 3 0.0 61.505000 86.644225 19.175000 0 0 0
523 1 3 0.0 61.505000 88.064622 19.175000 0 0 0
524 1 3 0.0 62.735100 88.774821 19.175000 0 0 0
525 1 3 0.0 62.735100 90.195218 19.175000 0 0 0
526 1 3 0.0 63.965200 90.905416 19.175000 0 0 0
527 1 3 0.0 63.965200 92.325814 19.175000 0 0 0
528 1 3 0.0 65.195300 93.036012 19.175000 0 0 0
529 1 3 0.0 65.195300 94.456409 19.175000 0 0 0
530 1 3 0.0 66.425400 95.166608 19.175000 0 0 0
531 1 3 0.0 66.425400 96.587005 19.175000 0 0 0
532 1 3 0.0 67.655500 97.297204 19.175000 0 0 0
533 1 3 0.0 67.655500 98.717601 19.175000 0 0 0
534 1 3 0.0 68.885600 99.427799 19.175000 0 0 0
535 1 3 0.0 68.885600 100.848196 19.175000 0 0 0
536 1 3 0.0 70.115700 101.558395 19.175000 0 0 0
537 1 3 0.0 70.115700 102.978792 19.175000 0 0 0
538 1 3 0.0 71.345800 103.688991 19.175000 0 0 0
539 1 3 0.0 71.345800 105.109388 19.175000 0 0 0
540 1 3 0.0 72.575900 105.819586 19.175000 0 0 0
541 1 3 0.0 72.575900 107.239983 19.175000 0 0 0
542 1 3 0.0 73.806000 107.950182 19.175000 0 0 0
543 1 3 0.0 73.806000 109.370579 19.175000 0 0 0
544 1 3 0.0 75.036100 110.080778 19.175000 0 0 0
545 1 3 0.0 75.036100 111.501175 19.175000 0 0 0
546 1 3 0.0 76.266200 112.211373 19.175000 0 0 0
547 1 3 0.0 76.266200 113.631771 19.175000 0 0 0
548 1 3 0.0 77.496300 114.341969 19.175000 0 0 0
549 1 3 0.0 77.496300 115.762366 19.175000 0 0 0
550 1 3 0.0 78.726400 116.472565 19.175000 0 0 0
551 1 3 0.0 13.531100 0.710199 19.175000 0 0 0
552 1 3 0.0 14.761200 1.420397 19.175000 0 0 0
553 1 3 0.0 14.761200 2.840794 19.175000 0 0 0
554 1 3 0.0 15.991300 3.550993 19.175000 0 0 0
555 1 3 0.0 15.991300 4.971390 19.175000 0 0 0
556 1 3 0.0 17.221400 5.681588 19.175000 0 0 0
557 1 3 0.0 17.221400 7.101986 19.175000 0 0 0
558 1 3 0.0 18.451500 7.812184 19.175000 0 0 0
559 1 3 0.0 18.451500 9.232581 19.175000 0 0 0
560 1 3 0.0 19.681600 9.942780 19.175000 0 0 0
561 1 3 0.0 19.681600 11.363177 19.175000 0 0 0
562 1 3 0.0 20.911700 12.073376 19.175000 0 0 0
563 1 3 0.0 20.911700 13.493773 19.175000 0 0 0
564 1 3 0.0 22.141800 14.203971 19.175000 0 0 0
565 1 3 0.0 22.141800 15.624368 19.175000 0 0 0
566 1 3 0.0 23.371900 16.334567 19.175000 0 0 0
567 1 3 0.0 23.371900 17.754964 19.175000 0 0 0
568 1 3 0.0 24.602000 18.465163 19.175000 0 0 0
569 1 3 0.0 24.602000 19.885560 19.175000 0 0 0
570 1 3 0.0 25.832100 20.595758 19.175000 0 0 0
571 1 3 0.0 25.832100 22.016156 19.175000 0 0 0
572 1 3 0.0 27.062200 22.726354 19.175000 0 0 0
573 1 3 0.0 27.062200 24.146751 19.175000 0 0 0
574 1 3 0.0 28.292300 24.856950 19.175000 0 0 0
575 1 3 0.0 28.292300 26.277347 19.175000 0 0 0
576 1 3 0.0 29.522400 26.987545 19.175000 0 0 0
577 1 3 0.0 29.522400 28.407943 19.175000 0 0 0
578 1 3 0.0 30.752500 29.118141 19.175000 0 0 0
579 1 3 0.0 30.752500 30.538538 19.175000 0 0 0
580 1 3 0.0 31.982600 31.248737 19.175000 0 0 0
581 1 3 0.0 31.982600 32.669134 19.175000 0 0 0
582 1 3 0.0 33.212700 33.379333 19.175000 0 0 0
583 1 3 0.0 33.212700 34.799730 19.175000 0 0 0
584 1 3 0.0 34.442800 35.509928 19.175000 0 0 0
585 1 3 0.0 34.442800 36.930325 19.175000 0 0 0
586 1 3 0.0 35.672900 37.640524 19.175000 0 0 0
587 1 3 0.0 35.672900 39.060921 19.175000 0 0 0
588 1 3 0.0 36.903000 39.771120 19.175000 0 0 0
589 1 3 0.0 36.903000 41.191517 19.175000 0 0 0
590 1 3 0.0 38.133100 41.901715 19.175000 0 0 0
591 1 3 0.0 38.133100 43.322113 19.175000 0 0 0
592 1 3 0.0 39.363200 44.032311 19.175000 0 0 0
593 1 3 0.0 39.363200 45.452708 19.175000 0 0 0
594 1 3 0.0 40.593300 46.162907 19.175000 0 0 0
595 1 3 0.0 40.593300 47.583304 19.175000 0 0 0
596 1 3 0.0 41.823400 48.293502 19.175000 0 0 0
597 1 3 0.0 41.823400 49.713900 19.175000 0 0 0
598 1 3 0.0 43.053500 50.424098 19.175000 0 0 0
599 1 3 0.0 43.053500 51.844495 19.175000 0 0 0
600 1 3 0.0 44.283600 52.554694 19.175000 0 0 0
601 1 3 0.0 44.283600 53.975091 19.175000 0 0 0
602 1 3 0.0 45.513700 54.685290 19.175000 0 0 0
603 1 3 0.0 45.513700 56.105687 19.175000 0 0 0
604 1 3 0.0 46.743800 56.815885 19.175000 0 0 0
605 1 3 0.0 46.743800 58.236282 19.175000 0 0 0
606 1 3 0.0 47.973900 58.946481 19.175000 0 0 0
607 1 3 0.0 47.973900 60.366878 19.175000 0 0 0
608 1 3 0.0 49.204000 61.077077 19.175000 0 0 0
609 1 3 0.0 49.204000 62.497474 19.175000 0 0 0
610 1 3 0.0 50.434100 63.207672 19.175000 0 0 0
611 1 3 0.0 50.434100 64.628070 19.175000 0 0 0
612 1 3 0.0 51.664200 65.338268 19.175000 0 0 0
613 1 3 0.0 51.664200 66.758665 19.175000 0 0 0
614 1 3 0.0 52.894300 67.468864 19.175000 0 0 0
615 1 3 0.0 52.894300 68.889261 19.175000 0 0 0
616 1 3 0.0 54.124400 69.599459 19.175000 0 0 0
617 1 3 0.0 54.124400 71.019857 19.175000 0 0 0
618 1 3 0.0 55.354500 71.730055 19.175000 0 0 0
619 1 3 0.0 55.354500 73.150452 19.175000 0 0 0
620 1 3 0.0 56.584600 73.860651 19.175000 0 0 0
621 1 3 0.0 56.584600 75.281048 19.175000 0 0 0