ITEM: TIMESTEP
0
ITEM: NUMBER OF ATOMS
13332
ITEM: BOX BOUNDS xy xz yz pp pp pp
0.0000000000000000e+00 1.5273562792000001e+02 5.0911875973000001e+01
0.0000000000000000e+00 8.8181955895000002e+01 0.0000000000000000e+00
0.0000000000000000e+00 3.5000000000000000e+01 0.0000000000000000e+00
ITEM: ATOMS id type x y z ix iy iz
1 3             1.396882              0.25739               19.175 0 0 0
2 3             2.793763             0.514781               19.175 0 0 0
3 3             3.269297             1.853211               19.175 0 0 0
4 3             4.666179             2.110601               19.175 0 0 0
5 3             5.141713             3.449032               19.175 0 0 0
6 3             6.538595             3.706422               19.175 0 0 0
7 3             7.014129             5.044852               19.175 0 0 0
8 3             8.411011             5.302243               19.175 0 0 0
9 3             8.886545             6.640673               19.175 0 0 0
10 3            10.283426             6.898063               19.175 0 0 0
11 3             10.75896             8.236493               19.175 0 0 0
12 3            12.155842             8.493884               19.175 0 0 0
13 3            12.631376             9.832314               19.175 0 0 0
14 3            14.028258            10.089704               19.175 0 0 0
15 3            14.503792            11.428134               19.175 0 0 0
16 3            15.900673            11.685525               19.175 0 0 0
17 3            16.376208            13.023955               19.175 0 0 0
18 3            17.773089            13.281345               19.175 0 0 0
19 3            18.248623            14.619776               19.175 0 0 0
20 3            19.645505            14.877166               19.175 0 0 0
21 3            20.121039            16.215596               19.175 0 0 0
22 3            21.517921            16.472987               19.175 0 0 0
23 3            21.993455            17.811417               19.175 0 0 0
24 3            23.390336            18.068807               19.175 0 0 0
25 3            23.865871            19.407237               19.175 0 0 0
26 3            25.262752            19.664628               19.175 0 0 0
27 3            25.738286            21.003058               19.175 0 0 0
28 3            27.135168            21.260448               19.175 0 0 0
29 3            27.610702            22.598878               19.175 0 0 0
30 3            29.007584            22.856269               19.175 0 0 0
31 3            29.483118            24.194699               19.175 0 0 0
32 3                30.88            24.452089               19.175 0 0 0
33 3            31.355534            25.790519               19.175 0 0 0
34 3            32.752415             26.04791               19.175 0 0 0
35 3            33.227949             27.38634               19.175 0 0 0
36 3            34.624831             27.64373               19.175 0 0 0
37 3            35.100365            28.982161               19.175 0 0 0
38 3            36.497247            29.239551               19.175 0 0 0
39 3            36.972781            30.577981               19.175 0 0 0
40 3            38.369663            30.835372               19.175 0 0 0
41 3            38.845197            32.173802               19.175 0 0 0
42 3            40.242078            32.431192               19.175 0 0 0
43 3            40.717612            33.769622               19.175 0 0 0
44 3            42.114494            34.027013               19.175 0 0 0
45 3            42.590028            35.365443               19.175 0 0 0
46 3             43.98691            35.622833               19.175 0 0 0
47 3            44.462444            36.961263               19.175 0 0 0
48 3            45.859326            37.218654               19.175 0 0 0
49 3             46.33486            38.557084               19.175 0 0 0
50 3            47.731741            38.814474               19.175 0 0 0
51 3            48.207275            40.152905               19.175 0 0 0
52 3            49.604157            40.410295               19.175 0 0 0
53 3            50.079691            41.748725               19.175 0 0 0
54 3            51.476573            42.006116               19.175 0 0 0
55 3            51.952107            43.344546               19.175 0 0 0
56 3            53.348989            43.601936               19.175 0 0 0
57 3            53.824523            44.940366               19.175 0 0 0
58 3            55.221404            45.197757               19.175 0 0 0
59 3            55.696938            46.536187               19.175 0 0 0
60 3             57.09382            46.793577               19.175 0 0 0
61 3            57.569354            48.132007               19.175 0 0 0
62 3            58.966236            48.389398               19.175 0 0 0
63 3             59.44177            49.727828               19.175 0 0 0
64 3            60.838652            49.985218               19.175 0 0 0
65 3            61.314186            51.323649               19.175 0 0 0
66 3            62.711067            51.581039               19.175 0 0 0
67 3            63.186601            52.919469               19.175 0 0 0
68 3            64.583483             53.17686               19.175 0 0 0
69 3            65.059017             54.51529               19.175 0 0 0
70 3            66.455899             54.77268               19.175 0 0 0
71 3            66.931433             56.11111               19.175 0 0 0
72 3            68.328315            56.368501               19.175 0 0 0
73 3            68.803849            57.706931               19.175 0 0 0
74 3             70.20073            57.964321               19.175 0 0 0
75 3            70.676264            59.302751               19.175 0 0 0
76 3            72.073146            59.560142               19.175 0 0 0
77 3             72.54868            60.898572               19.175 0 0 0
78 3            73.945562            61.155962               19.175 0 0 0
79 3            74.421096            62.494393               19.175 0 0 0
80 3            75.817978            62.751783               19.175 0 0 0
81 3            76.293512            64.090213               19.175 0 0 0
82 3            77.690393            64.347604               19.175 0 0 0
83 3            78.165927            65.686034               19.175 0 0 0
84 3            79.562809            65.943424               19.175 0 0 0
85 3            80.038343            67.281854               19.175 0 0 0
86 3            81.435225            67.539245               19.175 0 0 0
87 3            81.910759            68.877675               19.175 0 0 0
88 3            83.307641            69.135065               19.175 0 0 0
89 3            83.783175            70.473495               19.175 0 0 0
90 3            85.180056            70.730886               19.175 0 0 0
91 3            85.655591            72.069316               19.175 0 0 0
92 3            87.052472            72.326706               19.175 0 0 0
93 3            87.528006            73.665137               19.175 0 0 0
94 3            88.924888            73.922527               19.175 0 0 0
95 3            89.400422            75.260957               19.175 0 0 0
96 3            90.797304            75.518347               19.175 0 0 0
97 3            91.272838            76.856778               19.175 0 0 0
98 3            92.669719            77.114168               19.175 0 0 0
99 3            93.145253            78.452598               19.175 0 0 0
100 3            94.542135            78.709989               19.175 0 0 0
101 3            95.017669            80.048419               19.175 0 0 0
102 3            96.414551            80.305809               19.175 0 0 0
103 3            96.890085            81.644239               19.175 0 0 0
104 3            98.286967             81.90163               19.175 0 0 0
105 3            98.762501             83.24006               19.175 0 0 0
106 3           100.159382             83.49745               19.175 0 0 0
107 3           100.634917             84.83588               19.175 0 0 0
108 3           102.031798            85.093271               19.175 0 0 0
109 3           102.507332            86.431701               19.175 0 0 0
110 3           103.904214            86.689091               19.175 0 0 0
111 3           104.379748            88.027522               19.175 0 0 0
112 3            54.864754             0.102956               19.175 0 0 0
113 3            55.340288             1.441386               19.175 0 0 0
114 3            56.737169             1.698777               19.175 0 0 0
115 3            57.212704             3.037207               19.175 0 0 0
116 3            58.609585             3.294597               19.175 0 0 0
117 3            59.085119             4.633027               19.175 0 0 0
118 3            60.482001             4.890418               19.175 0 0 0
119 3            60.957535             6.228848               19.175 0 0 0
120 3            62.354417             6.486238               19.175 0 0 0
121 3            62.829951             7.824669               19.175 0 0 0
122 3            64.226832             8.082059               19.175 0 0 0
123 3            64.702367             9.420489               19.175 0 0 0
124 3            66.099248              9.67788               19.175 0 0 0
125 3            66.574782             11.01631               19.175 0 0 0
126 3            67.971664              11.2737               19.175 0 0 0
127 3            68.447198             12.61213               19.175 0 0 0
128 3             69.84408            12.869521               19.175 0 0 0
129 3            70.319614            14.207951               19.175 0 0 0
130 3            71.716495            14.465341               19.175 0 0 0
131 3             72.19203            15.803771               19.175 0 0 0
132 3            73.588911            16.061162               19.175 0 0 0
133 3            74.064445            17.399592               19.175 0 0 0
134 3            75.461327            17.656982               19.175 0 0 0
135 3            75.936861            18.995413               19.175 0 0 0
136 3            77.333743            19.252803               19.175 0 0 0
137 3            77.809277            20.591233               19.175 0 0 0
138 3            79.206158            20.848624               19.175 0 0 0
139 3            79.681693            22.187054               19.175 0 0 0
140 3            81.078574            22.444444               19.175 0 0 0
141 3            81.554108            23.782874               19.175 0 0 0
142 3             82.95099            24.040265               19.175 0 0 0
143 3            83.426524            25.378695               19.175 0 0 0
144 3            84.823406            25.636085               19.175 0 0 0
145 3             85.29894            26.974515               19.175 0 0 0
146 3            86.695822            27.231906               19.175 0 0 0
147 3            87.171356            28.570336               19.175 0 0 0
148 3            88.568237            28.827726               19.175 0 0 0
149 3            89.043771            30.166157               19.175 0 0 0
150 3            90.440653            30.423547               19.175 0 0 0
151 3            90.916187            31.761977               19.175 0 0 0
152 3            92.313069            32.019368               19.175 0 0 0
153 3            92.788603            33.357798               19.175 0 0 0
154 3            94.185484            33.615188               19.175 0 0 0
155 3            94.661019            34.953618               19.175 0 0 0
156 3              96.0579            35.211009               19.175 0 0 0
157 3            96.533434            36.549439               19.175 0 0 0
158 3            97.930316            36.806829               19.175 0 0 0
159 3             98.40585            38.145259               19.175 0 0 0
160 3            99.802732             38.40265               19.175 0 0 0
161 3           100.278266             39.74108               19.175 0 0 0
162 3           101.675148             39.99847               19.175 0 0 0
163 3           102.150682            41.336901               19.175 0 0 0
164 3           103.547563            41.594291               19.175 0 0 0
165 3           104.023097            42.932721               19.175 0 0 0
166 3           105.419979            43.190112               19.175 0 0 0
167 3           105.895513            44.528542               19.175 0 0 0
168 3           107.292395            44.785932               19.175 0 0 0
169 3           107.767929            46.124362               19.175 0 0 0
170 3           109.164811            46.381753               19.175 0 0 0
171 3           109.640345            47.720183               19.175 0 0 0
172 3           111.037226            47.977573               19.175 0 0 0
173 3            111.51276            49.316003               19.175 0 0 0
174 3           112.909642            49.573394               19.175 0 0 0
175 3           113.385176            50.911824               19.175 0 0 0
176 3           114.782058            51.169214               19.175 0 0 0
177 3           115.257592            52.507644               19.175 0 0 0
178 3           116.654474            52.765035               19.175 0 0 0
179 3           117.130008            54.103465               19.175 0 0 0
180 3           118.526889            54.360855               19.175 0 0 0
181 3           119.002423            55.699286               19.175 0 0 0
182 3           120.399305            55.956676               19.175 0 0 0
183 3           120.874839            57.295106               19.175 0 0 0
184 3           122.271721            57.552497               19.175 0 0 0
185 3           122.747255            58.890927               19.175 0 0 0
186 3           124.144137            59.148317               19.175 0 0 0
187 3           124.619671            60.486747               19.175 0 0 0
188 3           126.016552            60.744138               19.175 0 0 0
189 3           126.492087            62.082568               19.175 0 0 0
190 3           127.888968            62.339958               19.175 0 0 0
191 3           128.364502            63.678388               19.175 0 0 0
192 3           129.761384            63.935779               19.175 0 0 0
193 3           130.236918            65.274209               19.175 0 0 0
194 3             131.6338            65.531599               19.175 0 0 0
195 3           132.109334             66.87003               19.175 0 0 0
196 3           133.506215             67.12742               19.175 0 0 0
197 3           133.981749             68.46585               19.175 0 0 0
198 3           135.378631            68.723241               19.175 0 0 0
199 3           135.854165            70.061671               19.175 0 0 0
200 3           137.251047            70.319061               19.175 0 0 0
201 3           137.726581            71.657491               19.175 0 0 0
202 3           139.123463            71.914882               19.175 0 0 0
203 3           139.598997            73.253312               19.175 0 0 0
204 3           140.995878            73.510702               19.175 0 0 0
205 3           141.471412            74.849132               19.175 0 0 0
206 3           142.868294            75.106523               19.175 0 0 0
207 3           143.343828            76.444953               19.175 0 0 0
208 3            144.74071            76.702343               19.175 0 0 0
209 3           145.216244            78.040774               19.175 0 0 0
210 3           146.613126            78.298164               19.175 0 0 0
211 3            147.08866            79.636594               19.175 0 0 0
212 3            46.661789            79.893985               19.175 0 0 0
213 3            47.137324            81.232415               19.175 0 0 0
214 3            48.534205            81.489805               19.175 0 0 0
215 3            49.009739            82.828235               19.175 0 0 0
216 3            50.406621            83.085626               19.175 0 0 0
217 3            50.882155            84.424056               19.175 0 0 0
218 3            52.279037            84.681446               19.175 0 0 0
219 3            52.754571            86.019876               19.175 0 0 0
220 3            54.151452            86.277267               19.175 0 0 0
221 3            54.626987            87.615697               19.175 0 0 0
222 3            56.023868            87.873087               19.175 0 0 0
223 3             5.587526             1.029562               19.175 0 0 0
224 3             6.984408             1.286952               19.175 0 0 0
225 3             7.459942             2.625382               19.175 0 0 0
226 3             8.856824             2.882773               19.175 0 0 0
227 3             9.332358             4.221203               19.175 0 0 0
228 3            10.729239             4.478593               19.175 0 0 0
229 3            11.204774             5.817023               19.175 0 0 0
230 3            12.601655             6.074414               19.175 0 0 0
231 3            13.077189             7.412844               19.175 0 0 0
232 3            14.474071             7.670234               19.175 0 0 0
233 3            14.949605             9.008664               19.175 0 0 0
234 3            16.346487             9.266055               19.175 0 0 0
235 3            16.822021            10.604485               19.175 0 0 0
236 3            18.218903            10.861875               19.175 0 0 0
237 3            18.694437            12.200306               19.175 0 0 0
238 3            20.091318            12.457696               19.175 0 0 0
239 3            20.566852            13.796126               19.175 0 0 0
240 3            21.963734            14.053517               19.175 0 0 0
241 3            22.439268            15.391947               19.175 0 0 0
242 3             23.83615            15.649337               19.175 0 0 0
243 3            24.311684            16.987767               19.175 0 0 0
244 3            25.708566            17.245158               19.175 0 0 0
245 3              26.1841            18.583588               19.175 0 0 0
246 3            27.580981            18.840978               19.175 0 0 0
247 3            28.056515            20.179408               19.175 0 0 0
248 3            29.453397            20.436799               19.175 0 0 0
249 3            29.928931            21.775229               19.175 0 0 0
250 3            31.325813            22.032619               19.175 0 0 0
251 3            31.801347             23.37105               19.175 0 0 0
252 3            33.198228             23.62844               19.175 0 0 0
253 3            33.673763             24.96687               19.175 0 0 0
254 3            35.070644            25.224261               19.175 0 0 0
255 3            35.546178            26.562691               19.175 0 0 0
256 3             36.94306            26.820081               19.175 0 0 0
257 3            37.418594            28.158511               19.175 0 0 0
258 3            38.815476            28.415902               19.175 0 0 0
259 3             39.29101            29.754332               19.175 0 0 0
260 3            40.687892            30.011722               19.175 0 0 0
261 3            41.163426            31.350152               19.175 0 0 0
262 3            42.560307            31.607543               19.175 0 0 0
263 3            43.035841            32.945973               19.175 0 0 0
264 3            44.432723            33.203363               19.175 0 0 0
265 3            44.908257            34.541794               19.175 0 0 0
266 3            46.305139            34.799184               19.175 0 0 0
267 3            46.780673            36.137614               19.175 0 0 0
268 3            48.177555            36.395005               19.175 0 0 0
269 3            48.653089            37.733435               19.175 0 0 0
270 3             50.04997            37.990825               19.175 0 0 0
271 3            50.525505            39.329255               19.175 0 0 0
272 3            51.922386            39.586646               19.175 0 0 0
273 3             52.39792            40.925076               19.175 0 0 0
274 3            53.794802            41.182466               19.175 0 0 0
275 3            54.270336            42.520896               19.175 0 0 0
276 3            55.667218            42.778287               19.175 0 0 0
277 3            56.142752            44.116717               19.175 0 0 0
278 3            57.539633            44.374107               19.175 0 0 0
279 3            58.015168            45.712538               19.175 0 0 0
280 3            59.412049            45.969928               19.175 0 0 0
281 3            59.887583            47.308358               19.175 0 0 0
282 3            61.284465            47.565749               19.175 0 0 0
283 3            61.759999            48.904179               19.175 0 0 0
284 3            63.156881            49.161569               19.175 0 0 0
285 3            63.632415            50.499999               19.175 0 0 0
286 3            65.029296             50.75739               19.175 0 0 0
287 3             65.50483             52.09582               19.175 0 0 0
288 3            66.901712             52.35321               19.175 0 0 0
289 3            67.377246             53.69164               19.175 0 0 0
290 3            68.774128            53.949031               19.175 0 0 0
291 3            69.249662            55.287461               19.175 0 0 0
292 3            70.646544            55.544851               19.175 0 0 0
293 3            71.122078            56.883282               19.175 0 0 0
294 3            72.518959            57.140672               19.175 0 0 0
295 3            72.994494            58.479102               19.175 0 0 0
296 3            74.391375            58.736493               19.175 0 0 0
297 3            74.866909            60.074923               19.175 0 0 0
298 3            76.263791            60.332313               19.175 0 0 0
299 3            76.739325            61.670743               19.175 0 0 0
300 3            78.136207            61.928134               19.175 0 0 0
301 3            78.611741            63.266564               19.175 0 0 0
302 3            80.008622            63.523954               19.175 0 0 0
303 3            80.484157            64.862384               19.175 0 0 0
304 3            81.881038            65.119775               19.175 0 0 0
305 3            82.356572            66.458205               19.175 0 0 0
306 3            83.753454            66.715595               19.175 0 0 0
307 3            84.228988            68.054026               19.175 0 0 0
308 3             85.62587            68.311416               19.175 0 0 0
309 3            86.101404            69.649846               19.175 0 0 0
310 3            87.498285            69.907237               19.175 0 0 0
311 3             87.97382            71.245667               19.175 0 0 0
312 3            89.370701            71.503057               19.175 0 0 0
313 3            89.846235            72.841487               19.175 0 0 0
314 3            91.243117            73.098878               19.175 0 0 0
315 3            91.718651            74.437308               19.175 0 0 0
316 3            93.115533            74.694698               19.175 0 0 0
317 3            93.591067            76.033128               19.175 0 0 0
318 3            94.987948            76.290519               19.175 0 0 0
319 3            95.463483            77.628949               19.175 0 0 0
320 3            96.860364            77.886339               19.175 0 0 0
321 3            97.335898            79.224769               19.175 0 0 0
322 3             98.73278             79.48216               19.175 0 0 0
323 3            99.208314             80.82059               19.175 0 0 0
324 3           100.605196             81.07798               19.175 0 0 0
325 3            101.08073            82.416411               19.175 0 0 0
326 3           102.477611            82.673801               19.175 0 0 0
327 3           102.953146            84.012231               19.175 0 0 0
328 3           104.350027            84.269622               19.175 0 0 0
329 3           104.825561            85.608052               19.175 0 0 0
330 3           106.222443            85.865442               19.175 0 0 0
331 3           106.697977            87.203872               19.175 0 0 0
332 3           108.094859            87.461263               19.175 0 0 0
333 3            57.658517             0.617737               19.175 0 0 0
334 3            59.055398             0.875127               19.175 0 0 0
335 3            59.530933             2.213558               19.175 0 0 0
336 3            60.927814             2.470948               19.175 0 0 0
337 3            61.403348             3.809378               19.175 0 0 0
338 3             62.80023             4.066769               19.175 0 0 0
339 3            63.275764             5.405199               19.175 0 0 0
340 3            64.672646             5.662589               19.175 0 0 0
341 3             65.14818             7.001019               19.175 0 0 0
342 3            66.545062              7.25841               19.175 0 0 0
343 3            67.020596              8.59684               19.175 0 0 0
344 3            68.417477              8.85423               19.175 0 0 0
345 3            68.893011             10.19266               19.175 0 0 0
346 3            70.289893            10.450051               19.175 0 0 0
347 3            70.765427            11.788481               19.175 0 0 0
348 3            72.162309            12.045871               19.175 0 0 0
349 3            72.637843            13.384302               19.175 0 0 0
350 3            74.034724            13.641692               19.175 0 0 0
351 3            74.510259            14.980122               19.175 0 0 0
352 3             75.90714            15.237513               19.175 0 0 0
353 3            76.382674            16.575943               19.175 0 0 0
354 3            77.779556            16.833333               19.175 0 0 0
355 3             78.25509            18.171763               19.175 0 0 0
356 3            79.651972            18.429154               19.175 0 0 0
357 3            80.127506            19.767584               19.175 0 0 0
358 3            81.524387            20.024974               19.175 0 0 0
359 3            81.999922            21.363404               19.175 0 0 0
360 3            83.396803            21.620795               19.175 0 0 0
361 3            83.872337            22.959225               19.175 0 0 0
362 3            85.269219            23.216615               19.175 0 0 0
363 3            85.744753            24.555046               19.175 0 0 0
364 3            87.141635            24.812436               19.175 0 0 0
365 3            87.617169            26.150866               19.175 0 0 0
366 3            89.014051            26.408256               19.175 0 0 0
367 3            89.489585            27.746687               19.175 0 0 0
368 3            90.886466            28.004077               19.175 0 0 0
369 3               91.362            29.342507               19.175 0 0 0
370 3            92.758882            29.599898               19.175 0 0 0
371 3            93.234416            30.938328               19.175 0 0 0
372 3            94.631298            31.195718               19.175 0 0 0
373 3            95.106832            32.534148               19.175 0 0 0
374 3            96.503714            32.791539               19.175 0 0 0
375 3            96.979248            34.129969               19.175 0 0 0
376 3            98.376129            34.387359               19.175 0 0 0
377 3            98.851663            35.725789               19.175 0 0 0
378 3           100.248545             35.98318               19.175 0 0 0
379 3           100.724079             37.32161               19.175 0 0 0
380 3           102.120961               37.579               19.175 0 0 0
381 3           102.596495            38.917431               19.175 0 0 0
382 3           103.993377            39.174821               19.175 0 0 0
383 3           104.468911            40.513251               19.175 0 0 0
384 3           105.865792            40.770642               19.175 0 0 0
385 3           106.341326            42.109072               19.175 0 0 0
386 3           107.738208            42.366462               19.175 0 0 0
387 3           108.213742            43.704892               19.175 0 0 0
388 3           109.610624            43.962283               19.175 0 0 0
389 3           110.086158            45.300713               19.175 0 0 0
390 3            111.48304            45.558103               19.175 0 0 0
391 3           111.958574            46.896533               19.175 0 0 0
392 3           113.355455            47.153924               19.175 0 0 0
393 3            113.83099            48.492354               19.175 0 0 0
394 3           115.227871            48.749744               19.175 0 0 0
395 3           115.703405            50.088175               19.175 0 0 0
396 3           117.100287            50.345565               19.175 0 0 0
397 3           117.575821            51.683995               19.175 0 0 0