
  6728 atoms
3 atom types

     0.000000000   101.823751947 xlo xhi
     0.000000000    88.181955895 ylo yhi
     0.000000000    35.000000000 zlo zhi
    50.911875973     0.000000000     0.000000000 xy xz yz

 Masses

1    10.800000191
2    14.000000000
3    12.010000229

 Atoms

1 1 3 0.0 1.396882 0.257390 19.175000 0 0 0
2 1 3 0.0 2.793763 0.514781 19.175000 0 0 0
3 1 3 0.0 3.269297 1.853211 19.175000 0 0 0
4 1 3 0.0 4.666179 2.110601 19.175000 0 0 0
5 1 3 0.0 5.141713 3.449032 19.175000 0 0 0
6 1 3 0.0 6.538595 3.706422 19.175000 0 0 0
7 1 3 0.0 7.014129 5.044852 19.175000 0 0 0
8 1 3 0.0 8.411011 5.302243 19.175000 0 0 0
9 1 3 0.0 8.886545 6.640673 19.175000 0 0 0
10 1 3 0.0 10.283426 6.898063 19.175000 0 0 0
11 1 3 0.0 10.758960 8.236493 19.175000 0 0 0
12 1 3 0.0 12.155842 8.493884 19.175000 0 0 0
13 1 3 0.0 12.631376 9.832314 19.175000 0 0 0
14 1 3 0.0 14.028258 10.089704 19.175000 0 0 0
15 1 3 0.0 14.503792 11.428134 19.175000 0 0 0
16 1 3 0.0 15.900673 11.685525 19.175000 0 0 0
17 1 3 0.0 16.376208 13.023955 19.175000 0 0 0
18 1 3 0.0 17.773089 13.281345 19.175000 0 0 0
19 1 3 0.0 18.248623 14.619776 19.175000 0 0 0
20 1 3 0.0 19.645505 14.877166 19.175000 0 0 0
21 1 3 0.0 20.121039 16.215596 19.175000 0 0 0
22 1 3 0.0 21.517921 16.472987 19.175000 0 0 0
23 1 3 0.0 21.993455 17.811417 19.175000 0 0 0
24 1 3 0.0 23.390336 18.068807 19.175000 0 0 0
25 1 3 0.0 23.865871 19.407237 19.175000 0 0 0
26 1 3 0.0 25.262752 19.664628 19.175000 0 0 0
27 1 3 0.0 25.738286 21.003058 19.175000 0 0 0
28 1 3 0.0 27.135168 21.260448 19.175000 0 0 0
29 1 3 0.0 27.610702 22.598878 19.175000 0 0 0
30 1 3 0.0 29.007584 22.856269 19.175000 0 0 0
31 1 3 0.0 29.483118 24.194699 19.175000 0 0 0
32 1 3 0.0 30.880000 24.452089 19.175000 0 0 0
33 1 3 0.0 31.355534 25.790519 19.175000 0 0 0
34 1 3 0.0 32.752415 26.047910 19.175000 0 0 0
35 1 3 0.0 33.227949 27.386340 19.175000 0 0 0
36 1 3 0.0 34.624831 27.643730 19.175000 0 0 0
37 1 3 0.0 35.100365 28.982161 19.175000 0 0 0
38 1 3 0.0 36.497247 29.239551 19.175000 0 0 0
39 1 3 0.0 36.972781 30.577981 19.175000 0 0 0
40 1 3 0.0 38.369663 30.835372 19.175000 0 0 0
41 1 3 0.0 38.845197 32.173802 19.175000 0 0 0
42 1 3 0.0 40.242078 32.431192 19.175000 0 0 0
43 1 3 0.0 40.717612 33.769622 19.175000 0 0 0
44 1 3 0.0 42.114494 34.027013 19.175000 0 0 0
45 1 3 0.0 42.590028 35.365443 19.175000 0 0 0
46 1 3 0.0 43.986910 35.622833 19.175000 0 0 0
47 1 3 0.0 44.462444 36.961263 19.175000 0 0 0
48 1 3 0.0 45.859326 37.218654 19.175000 0 0 0
49 1 3 0.0 46.334860 38.557084 19.175000 0 0 0
50 1 3 0.0 47.731741 38.814474 19.175000 0 0 0
51 1 3 0.0 48.207275 40.152905 19.175000 0 0 0
52 1 3 0.0 49.604157 40.410295 19.175000 0 0 0
53 1 3 0.0 50.079691 41.748725 19.175000 0 0 0
54 1 3 0.0 51.476573 42.006116 19.175000 0 0 0
55 1 3 0.0 51.952107 43.344546 19.175000 0 0 0
56 1 3 0.0 53.348989 43.601936 19.175000 0 0 0
57 1 3 0.0 53.824523 44.940366 19.175000 0 0 0
58 1 3 0.0 55.221404 45.197757 19.175000 0 0 0
59 1 3 0.0 55.696938 46.536187 19.175000 0 0 0
60 1 3 0.0 57.093820 46.793577 19.175000 0 0 0
61 1 3 0.0 57.569354 48.132007 19.175000 0 0 0
62 1 3 0.0 58.966236 48.389398 19.175000 0 0 0
63 1 3 0.0 59.441770 49.727828 19.175000 0 0 0
64 1 3 0.0 60.838652 49.985218 19.175000 0 0 0
65 1 3 0.0 61.314186 51.323649 19.175000 0 0 0
66 1 3 0.0 62.711067 51.581039 19.175000 0 0 0
67 1 3 0.0 63.186601 52.919469 19.175000 0 0 0
68 1 3 0.0 64.583483 53.176860 19.175000 0 0 0
69 1 3 0.0 65.059017 54.515290 19.175000 0 0 0
70 1 3 0.0 66.455899 54.772680 19.175000 0 0 0
71 1 3 0.0 66.931433 56.111110 19.175000 0 0 0
72 1 3 0.0 68.328315 56.368501 19.175000 0 0 0
73 1 3 0.0 68.803849 57.706931 19.175000 0 0 0
74 1 3 0.0 70.200730 57.964321 19.175000 0 0 0
75 1 3 0.0 70.676264 59.302751 19.175000 0 0 0
76 1 3 0.0 72.073146 59.560142 19.175000 0 0 0
77 1 3 0.0 72.548680 60.898572 19.175000 0 0 0
78 1 3 0.0 73.945562 61.155962 19.175000 0 0 0
79 1 3 0.0 74.421096 62.494393 19.175000 0 0 0
80 1 3 0.0 75.817978 62.751783 19.175000 0 0 0
81 1 3 0.0 76.293512 64.090213 19.175000 0 0 0
82 1 3 0.0 77.690393 64.347604 19.175000 0 0 0
83 1 3 0.0 78.165927 65.686034 19.175000 0 0 0
84 1 3 0.0 79.562809 65.943424 19.175000 0 0 0
85 1 3 0.0 80.038343 67.281854 19.175000 0 0 0
86 1 3 0.0 81.435225 67.539245 19.175000 0 0 0
87 1 3 0.0 81.910759 68.877675 19.175000 0 0 0
88 1 3 0.0 83.307641 69.135065 19.175000 0 0 0
89 1 3 0.0 83.783175 70.473495 19.175000 0 0 0
90 1 3 0.0 85.180056 70.730886 19.175000 0 0 0
91 1 3 0.0 85.655591 72.069316 19.175000 0 0 0
92 1 3 0.0 87.052472 72.326706 19.175000 0 0 0
93 1 3 0.0 87.528006 73.665137 19.175000 0 0 0
94 1 3 0.0 88.924888 73.922527 19.175000 0 0 0
95 1 3 0.0 89.400422 75.260957 19.175000 0 0 0
96 1 3 0.0 90.797304 75.518347 19.175000 0 0 0
97 1 3 0.0 91.272838 76.856778 19.175000 0 0 0
98 1 3 0.0 92.669719 77.114168 19.175000 0 0 0
99 1 3 0.0 93.145253 78.452598 19.175000 0 0 0
100 1 3 0.0 94.542135 78.709989 19.175000 0 0 0
101 1 3 0.0 95.017669 80.048419 19.175000 0 0 0
102 1 3 0.0 96.414551 80.305809 19.175000 0 0 0
103 1 3 0.0 96.890085 81.644239 19.175000 0 0 0
104 1 3 0.0 98.286967 81.901630 19.175000 0 0 0
105 1 3 0.0 98.762501 83.240060 19.175000 0 0 0
106 1 3 0.0 100.159382 83.497450 19.175000 0 0 0
107 1 3 0.0 100.634917 84.835880 19.175000 0 0 0
108 1 3 0.0 102.031798 85.093271 19.175000 0 0 0
109 1 3 0.0 102.507332 86.431701 19.175000 0 0 0
110 1 3 0.0 103.904214 86.689091 19.175000 0 0 0
111 1 3 0.0 104.379748 88.027522 19.175000 0 0 0
112 1 3 0.0 54.864754 0.102956 19.175000 0 0 0
113 1 3 0.0 55.340288 1.441386 19.175000 0 0 0
114 1 3 0.0 56.737169 1.698777 19.175000 0 0 0
115 1 3 0.0 57.212704 3.037207 19.175000 0 0 0
116 1 3 0.0 58.609585 3.294597 19.175000 0 0 0
117 1 3 0.0 59.085119 4.633027 19.175000 0 0 0
118 1 3 0.0 60.482001 4.890418 19.175000 0 0 0
119 1 3 0.0 60.957535 6.228848 19.175000 0 0 0
120 1 3 0.0 62.354417 6.486238 19.175000 0 0 0
121 1 3 0.0 62.829951 7.824669 19.175000 0 0 0
122 1 3 0.0 64.226832 8.082059 19.175000 0 0 0
123 1 3 0.0 64.702367 9.420489 19.175000 0 0 0
124 1 3 0.0 66.099248 9.677880 19.175000 0 0 0
125 1 3 0.0 66.574782 11.016310 19.175000 0 0 0
126 1 3 0.0 67.971664 11.273700 19.175000 0 0 0
127 1 3 0.0 68.447198 12.612130 19.175000 0 0 0
128 1 3 0.0 69.844080 12.869521 19.175000 0 0 0
129 1 3 0.0 70.319614 14.207951 19.175000 0 0 0
130 1 3 0.0 71.716495 14.465341 19.175000 0 0 0
131 1 3 0.0 72.192030 15.803771 19.175000 0 0 0
132 1 3 0.0 73.588911 16.061162 19.175000 0 0 0
133 1 3 0.0 74.064445 17.399592 19.175000 0 0 0
134 1 3 0.0 75.461327 17.656982 19.175000 0 0 0
135 1 3 0.0 75.936861 18.995413 19.175000 0 0 0
136 1 3 0.0 77.333743 19.252803 19.175000 0 0 0
137 1 3 0.0 77.809277 20.591233 19.175000 0 0 0
138 1 3 0.0 79.206158 20.848624 19.175000 0 0 0
139 1 3 0.0 79.681693 22.187054 19.175000 0 0 0
140 1 3 0.0 81.078574 22.444444 19.175000 0 0 0
141 1 3 0.0 81.554108 23.782874 19.175000 0 0 0
142 1 3 0.0 82.950990 24.040265 19.175000 0 0 0
143 1 3 0.0 83.426524 25.378695 19.175000 0 0 0
144 1 3 0.0 84.823406 25.636085 19.175000 0 0 0
145 1 3 0.0 85.298940 26.974515 19.175000 0 0 0
146 1 3 0.0 86.695822 27.231906 19.175000 0 0 0
147 1 3 0.0 87.171356 28.570336 19.175000 0 0 0
148 1 3 0.0 88.568237 28.827726 19.175000 0 0 0
149 1 3 0.0 89.043771 30.166157 19.175000 0 0 0
150 1 3 0.0 90.440653 30.423547 19.175000 0 0 0
151 1 3 0.0 90.916187 31.761977 19.175000 0 0 0
152 1 3 0.0 92.313069 32.019368 19.175000 0 0 0
153 1 3 0.0 92.788603 33.357798 19.175000 0 0 0
154 1 3 0.0 94.185484 33.615188 19.175000 0 0 0
155 1 3 0.0 94.661019 34.953618 19.175000 0 0 0
156 1 3 0.0 96.057900 35.211009 19.175000 0 0 0
157 1 3 0.0 96.533434 36.549439 19.175000 0 0 0
158 1 3 0.0 97.930316 36.806829 19.175000 0 0 0
159 1 3 0.0 98.405850 38.145259 19.175000 0 0 0
160 1 3 0.0 99.802732 38.402650 19.175000 0 0 0
161 1 3 0.0 100.278266 39.741080 19.175000 0 0 0
162 1 3 0.0 101.675148 39.998470 19.175000 0 0 0
163 1 3 0.0 102.150682 41.336901 19.175000 0 0 0
164 1 3 0.0 103.547563 41.594291 19.175000 0 0 0
165 1 3 0.0 104.023097 42.932721 19.175000 0 0 0
166 1 3 0.0 105.419979 43.190112 19.175000 0 0 0
167 1 3 0.0 105.895513 44.528542 19.175000 0 0 0
168 1 3 0.0 107.292395 44.785932 19.175000 0 0 0
169 1 3 0.0 107.767929 46.124362 19.175000 0 0 0
170 1 3 0.0 109.164811 46.381753 19.175000 0 0 0
171 1 3 0.0 109.640345 47.720183 19.175000 0 0 0
172 1 3 0.0 111.037226 47.977573 19.175000 0 0 0
173 1 3 0.0 111.512760 49.316003 19.175000 0 0 0
174 1 3 0.0 112.909642 49.573394 19.175000 0 0 0
175 1 3 0.0 113.385176 50.911824 19.175000 0 0 0
176 1 3 0.0 114.782058 51.169214 19.175000 0 0 0
177 1 3 0.0 115.257592 52.507644 19.175000 0 0 0
178 1 3 0.0 116.654474 52.765035 19.175000 0 0 0
179 1 3 0.0 117.130008 54.103465 19.175000 0 0 0
180 1 3 0.0 118.526889 54.360855 19.175000 0 0 0
181 1 3 0.0 119.002423 55.699286 19.175000 0 0 0
182 1 3 0.0 120.399305 55.956676 19.175000 0 0 0
183 1 3 0.0 120.874839 57.295106 19.175000 0 0 0
184 1 3 0.0 122.271721 57.552497 19.175000 0 0 0
185 1 3 0.0 122.747255 58.890927 19.175000 0 0 0
186 1 3 0.0 124.144137 59.148317 19.175000 0 0 0
187 1 3 0.0 124.619671 60.486747 19.175000 0 0 0
188 1 3 0.0 126.016552 60.744138 19.175000 0 0 0
189 1 3 0.0 126.492087 62.082568 19.175000 0 0 0
190 1 3 0.0 127.888968 62.339958 19.175000 0 0 0
191 1 3 0.0 128.364502 63.678388 19.175000 0 0 0
192 1 3 0.0 129.761384 63.935779 19.175000 0 0 0
193 1 3 0.0 130.236918 65.274209 19.175000 0 0 0
194 1 3 0.0 131.633800 65.531599 19.175000 0 0 0
195 1 3 0.0 132.109334 66.870030 19.175000 0 0 0
196 1 3 0.0 133.506215 67.127420 19.175000 0 0 0
197 1 3 0.0 133.981749 68.465850 19.175000 0 0 0
198 1 3 0.0 135.378631 68.723241 19.175000 0 0 0
199 1 3 0.0 135.854165 70.061671 19.175000 0 0 0
200 1 3 0.0 137.251047 70.319061 19.175000 0 0 0
201 1 3 0.0 137.726581 71.657491 19.175000 0 0 0
202 1 3 0.0 139.123463 71.914882 19.175000 0 0 0
203 1 3 0.0 139.598997 73.253312 19.175000 0 0 0
204 1 3 0.0 140.995878 73.510702 19.175000 0 0 0
205 1 3 0.0 141.471412 74.849132 19.175000 0 0 0
206 1 3 0.0 142.868294 75.106523 19.175000 0 0 0
207 1 3 0.0 143.343828 76.444953 19.175000 0 0 0
208 1 3 0.0 144.740710 76.702343 19.175000 0 0 0
209 1 3 0.0 145.216244 78.040774 19.175000 0 0 0
210 1 3 0.0 146.613126 78.298164 19.175000 0 0 0
211 1 3 0.0 147.088660 79.636594 19.175000 0 0 0
212 1 3 0.0 46.661789 79.893985 19.175000 0 0 0
213 1 3 0.0 47.137324 81.232415 19.175000 0 0 0
214 1 3 0.0 48.534205 81.489805 19.175000 0 0 0
215 1 3 0.0 49.009739 82.828235 19.175000 0 0 0
216 1 3 0.0 50.406621 83.085626 19.175000 0 0 0
217 1 3 0.0 50.882155 84.424056 19.175000 0 0 0
218 1 3 0.0 52.279037 84.681446 19.175000 0 0 0
219 1 3 0.0 52.754571 86.019876 19.175000 0 0 0
220 1 3 0.0 54.151452 86.277267 19.175000 0 0 0
221 1 3 0.0 54.626987 87.615697 19.175000 0 0 0
222 1 3 0.0 56.023868 87.873087 19.175000 0 0 0
223 1 3 0.0 5.587526 1.029562 19.175000 0 0 0
224 1 3 0.0 6.984408 1.286952 19.175000 0 0 0
225 1 3 0.0 7.459942 2.625382 19.175000 0 0 0
226 1 3 0.0 8.856824 2.882773 19.175000 0 0 0
227 1 3 0.0 9.332358 4.221203 19.175000 0 0 0
228 1 3 0.0 10.729239 4.478593 19.175000 0 0 0
229 1 3 0.0 11.204774 5.817023 19.175000 0 0 0
230 1 3 0.0 12.601655 6.074414 19.175000 0 0 0
231 1 3 0.0 13.077189 7.412844 19.175000 0 0 0
232 1 3 0.0 14.474071 7.670234 19.175000 0 0 0
233 1 3 0.0 14.949605 9.008664 19.175000 0 0 0
234 1 3 0.0 16.346487 9.266055 19.175000 0 0 0
235 1 3 0.0 16.822021 10.604485 19.175000 0 0 0
236 1 3 0.0 18.218903 10.861875 19.175000 0 0 0
237 1 3 0.0 18.694437 12.200306 19.175000 0 0 0
238 1 3 0.0 20.091318 12.457696 19.175000 0 0 0
239 1 3 0.0 20.566852 13.796126 19.175000 0 0 0
240 1 3 0.0 21.963734 14.053517 19.175000 0 0 0
241 1 3 0.0 22.439268 15.391947 19.175000 0 0 0
242 1 3 0.0 23.836150 15.649337 19.175000 0 0 0
243 1 3 0.0 24.311684 16.987767 19.175000 0 0 0
244 1 3 0.0 25.708566 17.245158 19.175000 0 0 0
245 1 3 0.0 26.184100 18.583588 19.175000 0 0 0
246 1 3 0.0 27.580981 18.840978 19.175000 0 0 0
247 1 3 0.0 28.056515 20.179408 19.175000 0 0 0
248 1 3 0.0 29.453397 20.436799 19.175000 0 0 0
249 1 3 0.0 29.928931 21.775229 19.175000 0 0 0
250 1 3 0.0 31.325813 22.032619 19.175000 0 0 0
251 1 3 0.0 31.801347 23.371050 19.175000 0 0 0
252 1 3 0.0 33.198228 23.628440 19.175000 0 0 0
253 1 3 0.0 33.673763 24.966870 19.175000 0 0 0
254 1 3 0.0 35.070644 25.224261 19.175000 0 0 0
255 1 3 0.0 35.546178 26.562691 19.175000 0 0 0
256 1 3 0.0 36.943060 26.820081 19.175000 0 0 0
257 1 3 0.0 37.418594 28.158511 19.175000 0 0 0
258 1 3 0.0 38.815476 28.415902 19.175000 0 0 0
259 1 3 0.0 39.291010 29.754332 19.175000 0 0 0
260 1 3 0.0 40.687892 30.011722 19.175000 0 0 0
261 1 3 0.0 41.163426 31.350152 19.175000 0 0 0
262 1 3 0.0 42.560307 31.607543 19.175000 0 0 0
263 1 3 0.0 43.035841 32.945973 19.175000 0 0 0
264 1 3 0.0 44.432723 33.203363 19.175000 0 0 0
265 1 3 0.0 44.908257 34.541794 19.175000 0 0 0
266 1 3 0.0 46.305139 34.799184 19.175000 0 0 0
267 1 3 0.0 46.780673 36.137614 19.175000 0 0 0
268 1 3 0.0 48.177555 36.395005 19.175000 0 0 0
269 1 3 0.0 48.653089 37.733435 19.175000 0 0 0
270 1 3 0.0 50.049970 37.990825 19.175000 0 0 0
271 1 3 0.0 50.525505 39.329255 19.175000 0 0 0
272 1 3 0.0 51.922386 39.586646 19.175000 0 0 0
273 1 3 0.0 52.397920 40.925076 19.175000 0 0 0
274 1 3 0.0 53.794802 41.182466 19.175000 0 0 0
275 1 3 0.0 54.270336 42.520896 19.175000 0 0 0
276 1 3 0.0 55.667218 42.778287 19.175000 0 0 0
277 1 3 0.0 56.142752 44.116717 19.175000 0 0 0
278 1 3 0.0 57.539633 44.374107 19.175000 0 0 0
279 1 3 0.0 58.015168 45.712538 19.175000 0 0 0
280 1 3 0.0 59.412049 45.969928 19.175000 0 0 0
281 1 3 0.0 59.887583 47.308358 19.175000 0 0 0
282 1 3 0.0 61.284465 47.565749 19.175000 0 0 0
283 1 3 0.0 61.759999 48.904179 19.175000 0 0 0
284 1 3 0.0 63.156881 49.161569 19.175000 0 0 0
285 1 3 0.0 63.632415 50.499999 19.175000 0 0 0
286 1 3 0.0 65.029296 50.757390 19.175000 0 0 0
287 1 3 0.0 65.504830 52.095820 19.175000 0 0 0
288 1 3 0.0 66.901712 52.353210 19.175000 0 0 0
289 1 3 0.0 67.377246 53.691640 19.175000 0 0 0
290 1 3 0.0 68.774128 53.949031 19.175000 0 0 0
291 1 3 0.0 69.249662 55.287461 19.175000 0 0 0
292 1 3 0.0 70.646544 55.544851 19.175000 0 0 0
293 1 3 0.0 71.122078 56.883282 19.175000 0 0 0
294 1 3 0.0 72.518959 57.140672 19.175000 0 0 0
295 1 3 0.0 72.994494 58.479102 19.175000 0 0 0
296 1 3 0.0 74.391375 58.736493 19.175000 0 0 0
297 1 3 0.0 74.866909 60.074923 19.175000 0 0 0
298 1 3 0.0 76.263791 60.332313 19.175000 0 0 0
299 1 3 0.0 76.739325 61.670743 19.175000 0 0 0
300 1 3 0.0 78.136207 61.928134 19.175000 0 0 0
301 1 3 0.0 78.611741 63.266564 19.175000 0 0 0
302 1 3 0.0 80.008622 63.523954 19.175000 0 0 0
303 1 3 0.0 80.484157 64.862384 19.175000 0 0 0
304 1 3 0.0 81.881038 65.119775 19.175000 0 0 0
305 1 3 0.0 82.356572 66.458205 19.175000 0 0 0
306 1 3 0.0 83.753454 66.715595 19.175000 0 0 0
307 1 3 0.0 84.228988 68.054026 19.175000 0 0 0
308 1 3 0.0 85.625870 68.311416 19.175000 0 0 0
309 1 3 0.0 86.101404 69.649846 19.175000 0 0 0
310 1 3 0.0 87.498285 69.907237 19.175000 0 0 0
311 1 3 0.0 87.973820 71.245667 19.175000 0 0 0
312 1 3 0.0 89.370701 71.503057 19.175000 0 0 0
313 1 3 0.0 89.846235 72.841487 19.175000 0 0 0
314 1 3 0.0 91.243117 73.098878 19.175000 0 0 0
315 1 3 0.0 91.718651 74.437308 19.175000 0 0 0
316 1 3 0.0 93.115533 74.694698 19.175000 0 0 0
317 1 3 0.0 93.591067 76.033128 19.175000 0 0 0
318 1 3 0.0 94.987948 76.290519 19.175000 0 0 0
319 1 3 0.0 95.463483 77.628949 19.175000 0 0 0
320 1 3 0.0 96.860364 77.886339 19.175000 0 0 0
321 1 3 0.0 97.335898 79.224769 19.175000 0 0 0
322 1 3 0.0 98.732780 79.482160 19.175000 0 0 0
323 1 3 0.0 99.208314 80.820590 19.175000 0 0 0
324 1 3 0.0 100.605196 81.077980 19.175000 0 0 0
325 1 3 0.0 101.080730 82.416411 19.175000 0 0 0
326 1 3 0.0 102.477611 82.673801 19.175000 0 0 0
327 1 3 0.0 102.953146 84.012231 19.175000 0 0 0
328 1 3 0.0 104.350027 84.269622 19.175000 0 0 0
329 1 3 0.0 104.825561 85.608052 19.175000 0 0 0
330 1 3 0.0 106.222443 85.865442 19.175000 0 0 0
331 1 3 0.0 106.697977 87.203872 19.175000 0 0 0
332 1 3 0.0 108.094859 87.461263 19.175000 0 0 0
333 1 3 0.0 57.658517 0.617737 19.175000 0 0 0
334 1 3 0.0 59.055398 0.875127 19.175000 0 0 0
335 1 3 0.0 59.530933 2.213558 19.175000 0 0 0
336 1 3 0.0 60.927814 2.470948 19.175000 0 0 0
337 1 3 0.0 61.403348 3.809378 19.175000 0 0 0
338 1 3 0.0 62.800230 4.066769 19.175000 0 0 0
339 1 3 0.0 63.275764 5.405199 19.175000 0 0 0
340 1 3 0.0 64.672646 5.662589 19.175000 0 0 0
341 1 3 0.0 65.148180 7.001019 19.175000 0 0 0
342 1 3 0.0 66.545062 7.258410 19.175000 0 0 0
343 1 3 0.0 67.020596 8.596840 19.175000 0 0 0
344 1 3 0.0 68.417477 8.854230 19.175000 0 0 0
345 1 3 0.0 68.893011 10.192660 19.175000 0 0 0
346 1 3 0.0 70.289893 10.450051 19.175000 0 0 0
347 1 3 0.0 70.765427 11.788481 19.175000 0 0 0
348 1 3 0.0 72.162309 12.045871 19.175000 0 0 0
349 1 3 0.0 72.637843 13.384302 19.175000 0 0 0
350 1 3 0.0 74.034724 13.641692 19.175000 0 0 0
351 1 3 0.0 74.510259 14.980122 19.175000 0 0 0
352 1 3 0.0 75.907140 15.237513 19.175000 0 0 0
353 1 3 0.0 76.382674 16.575943 19.175000 0 0 0
354 1 3 0.0 77.779556 16.833333 19.175000 0 0 0
355 1 3 0.0 78.255090 18.171763 19.175000 0 0 0
356 1 3 0.0 79.651972 18.429154 19.175000 0 0 0
357 1 3 0.0 80.127506 19.767584 19.175000 0 0 0
358 1 3 0.0 81.524387 20.024974 19.175000 0 0 0
359 1 3 0.0 81.999922 21.363404 19.175000 0 0 0
360 1 3 0.0 83.396803 21.620795 19.175000 0 0 0
361 1 3 0.0 83.872337 22.959225 19.175000 0 0 0
362 1 3 0.0 85.269219 23.216615 19.175000 0 0 0
363 1 3 0.0 85.744753 24.555046 19.175000 0 0 0
364 1 3 0.0 87.141635 24.812436 19.175000 0 0 0
365 1 3 0.0 87.617169 26.150866 19.175000 0 0 0
366 1 3 0.0 89.014051 26.408256 19.175000 0 0 0
367 1 3 0.0 89.489585 27.746687 19.175000 0 0 0
368 1 3 0.0 90.886466 28.004077 19.175000 0 0 0
369 1 3 0.0 91.362000 29.342507 19.175000 0 0 0
370 1 3 0.0 92.758882 29.599898 19.175000 0 0 0
371 1 3 0.0 93.234416 30.938328 19.175000 0 0 0
372 1 3 0.0 94.631298 31.195718 19.175000 0 0 0
373 1 3 0.0 95.106832 32.534148 19.175000 0 0 0
374 1 3 0.0 96.503714 32.791539 19.175000 0 0 0
375 1 3 0.0 96.979248 34.129969 19.175000 0 0 0
376 1 3 0.0 98.376129 34.387359 19.175000 0 0 0
377 1 3 0.0 98.851663 35.725789 19.175000 0 0 0
378 1 3 0.0 100.248545 35.983180 19.175000 0 0 0
379 1 3 0.0 100.724079 37.321610 19.175000 0 0 0
380 1 3 0.0 102.120961 37.579000 19.175000 0 0 0
381 1 3 0.0 102.596495 38.917431 19.175000 0 0 0
382 1 3 0.0 103.993377 39.174821 19.175000 0 0 0
383 1 3 0.0 104.468911 40.513251 19.175000 0 0 0
384 1 3 0.0 105.865792 40.770642 19.175000 0 0 0
385 1 3 0.0 106.341326 42.109072 19.175000 0 0 0
386 1 3 0.0 107.738208 42.366462 19.175000 0 0 0
387 1 3 0.0 108.213742 43.704892 19.175000 0 0 0
388 1 3 0.0 109.610624 43.962283 19.175000 0 0 0
389 1 3 0.0 110.086158 45.300713 19.175000 0 0 0
390 1 3 0.0 111.483040 45.558103 19.175000 0 0 0
391 1 3 0.0 111.958574 46.896533 19.175000 0 0 0
392 1 3 0.0 113.355455 47.153924 19.175000 0 0 0
393 1 3 0.0 113.830990 48.492354 19.175000 0 0 0
394 1 3 0.0 115.227871 48.749744 19.175000 0 0 0
395 1 3 0.0 115.703405 50.088175 19.175000 0 0 0
396 1 3 0.0 117.100287 50.345565 19.175000 0 0 0
397 1 3 0.0 117.575821 51.683995 19.175000 0 0 0
398 1 3 0.0 118.972703 51.941386 19.175000 0 0 0
399 1 3 0.0 119.448237 53.279816 19.175000 0 0 0
400 1 3 0.0 120.845118 53.537206 19.175000 0 0 0
401 1 3 0.0 121.320652 54.875636 19.175000 0 0 0
402 1 3 0.0 122.717534 55.133027 19.175000 0 0 0
403 1 3 0.0 123.193068 56.471457 19.175000 0 0 0
404 1 3 0.0 124.589950 56.728847 19.175000 0 0 0
405 1 3 0.0 125.065484 58.067277 19.175000 0 0 0
406 1 3 0.0 126.462366 58.324668 19.175000 0 0 0
407 1 3 0.0 126.937900 59.663098 19.175000 0 0 0
408 1 3 0.0 128.334781 59.920488 19.175000 0 0 0
409 1 3 0.0 128.810315 61.258919 19.175000 0 0 0
410 1 3 0.0 130.207197 61.516309 19.175000 0 0 0
411 1 3 0.0 130.682731 62.854739 19.175000 0 0 0
412 1 3 0.0 132.079613 63.112130 19.175000 0 0 0
413 1 3 0.0 132.555147 64.450560 19.175000 0 0 0
414 1 3 0.0 133.952029 64.707950 19.175000 0 0 0
415 1 3 0.0 134.427563 66.046380 19.175000 0 0 0
416 1 3 0.0 135.824444 66.303771 19.175000 0 0 0
417 1 3 0.0 136.299979 67.642201 19.175000 0 0 0
418 1 3 0.0 137.696860 67.899591 19.175000 0 0 0
419 1 3 0.0 138.172394 69.238021 19.175000 0 0 0
420 1 3 0.0 139.569276 69.495412 19.175000 0 0 0
421 1 3 0.0 140.044810 70.833842 19.175000 0 0 0
422 1 3 0.0 141.441692 71.091232 19.175000 0 0 0
423 1 3 0.0 141.917226 72.429663 19.175000 0 0 0
424 1 3 0.0 143.314107 72.687053 19.175000 0 0 0
425 1 3 0.0 143.789642 74.025483 19.175000 0 0 0
426 1 3 0.0 43.362771 74.282873 19.175000 0 0 0
427 1 3 0.0 43.838305 75.621304 19.175000 0 0 0
428 1 3 0.0 45.235187 75.878694 19.175000 0 0 0
429 1 3 0.0 45.710721 77.217124 19.175000 0 0 0
430 1 3 0.0 47.107603 77.474515 19.175000 0 0 0
431 1 3 0.0 47.583137 78.812945 19.175000 0 0 0
432 1 3 0.0 48.980018 79.070335 19.175000 0 0 0
433 1 3 0.0 49.455553 80.408765 19.175000 0 0 0
434 1 3 0.0 50.852434 80.666156 19.175000 0 0 0
435 1 3 0.0 51.327968 82.004586 19.175000 0 0 0
436 1 3 0.0 52.724850 82.261976 19.175000 0 0 0
437 1 3 0.0 53.200384 83.600407 19.175000 0 0 0
438 1 3 0.0 54.597266 83.857797 19.175000 0 0 0
439 1 3 0.0 55.072800 85.196227 19.175000 0 0 0
440 1 3 0.0 56.469681 85.453617 19.175000 0 0 0
441 1 3 0.0 56.945216 86.792048 19.175000 0 0 0
442 1 3 0.0 58.342097 87.049438 19.175000 0 0 0
443 1 3 0.0 7.905755 0.205912 19.175000 0 0 0
444 1 3 0.0 9.302637 0.463303 19.175000 0 0 0
445 1 3 0.0 9.778171 1.801733 19.175000 0 0 0
446 1 3 0.0 11.175053 2.059123 19.175000 0 0 0
447 1 3 0.0 11.650587 3.397553 19.175000 0 0 0
448 1 3 0.0 13.047469 3.654944 19.175000 0 0 0
449 1 3 0.0 13.523003 4.993374 19.175000 0 0 0
450 1 3 0.0 14.919884 5.250764 19.175000 0 0 0
451 1 3 0.0 15.395418 6.589195 19.175000 0 0 0
452 1 3 0.0 16.792300 6.846585 19.175000 0 0 0
453 1 3 0.0 17.267834 8.185015 19.175000 0 0 0
454 1 3 0.0 18.664716 8.442406 19.175000 0 0 0
455 1 3 0.0 19.140250 9.780836 19.175000 0 0 0
456 1 3 0.0 20.537132 10.038226 19.175000 0 0 0
457 1 3 0.0 21.012666 11.376656 19.175000 0 0 0
458 1 3 0.0 22.409547 11.634047 19.175000 0 0 0
459 1 3 0.0 22.885081 12.972477 19.175000 0 0 0
460 1 3 0.0 24.281963 13.229867 19.175000 0 0 0
461 1 3 0.0 24.757497 14.568297 19.175000 0 0 0
462 1 3 0.0 26.154379 14.825688 19.175000 0 0 0
463 1 3 0.0 26.629913 16.164118 19.175000 0 0 0
464 1 3 0.0 28.026795 16.421508 19.175000 0 0 0
465 1 3 0.0 28.502329 17.759939 19.175000 0 0 0
466 1 3 0.0 29.899210 18.017329 19.175000 0 0 0
467 1 3 0.0 30.374744 19.355759 19.175000 0 0 0
468 1 3 0.0 31.771626 19.613150 19.175000 0 0 0
469 1 3 0.0 32.247160 20.951580 19.175000 0 0 0
470 1 3 0.0 33.644042 21.208970 19.175000 0 0 0
471 1 3 0.0 34.119576 22.547400 19.175000 0 0 0
472 1 3 0.0 35.516458 22.804791 19.175000 0 0 0
473 1 3 0.0 35.991992 24.143221 19.175000 0 0 0
474 1 3 0.0 37.388873 24.400611 19.175000 0 0 0
475 1 3 0.0 37.864408 25.739041 19.175000 0 0 0
476 1 3 0.0 39.261289 25.996432 19.175000 0 0 0
477 1 3 0.0 39.736823 27.334862 19.175000 0 0 0
478 1 3 0.0 41.133705 27.592252 19.175000 0 0 0
479 1 3 0.0 41.609239 28.930683 19.175000 0 0 0
480 1 3 0.0 43.006121 29.188073 19.175000 0 0 0
481 1 3 0.0 43.481655 30.526503 19.175000 0 0 0
482 1 3 0.0 44.878536 30.783894 19.175000 0 0 0
483 1 3 0.0 45.354070 32.122324 19.175000 0 0 0
484 1 3 0.0 46.750952 32.379714 19.175000 0 0 0
485 1 3 0.0 47.226486 33.718144 19.175000 0 0 0
486 1 3 0.0 48.623368 33.975535 19.175000 0 0 0
487 1 3 0.0 49.098902 35.313965 19.175000 0 0 0
488 1 3 0.0 50.495784 35.571355 19.175000 0 0 0
489 1 3 0.0 50.971318 36.909785 19.175000 0 0 0
490 1 3 0.0 52.368199 37.167176 19.175000 0 0 0
491 1 3 0.0 52.843733 38.505606 19.175000 0 0 0
492 1 3 0.0 54.240615 38.762996 19.175000 0 0 0
493 1 3 0.0 54.716149 40.101427 19.175000 0 0 0
494 1 3 0.0 56.113031 40.358817 19.175000 0 0 0
495 1 3 0.0 56.588565 41.697247 19.175000 0 0 0
496 1 3 0.0 57.985447 41.954638 19.175000 0 0 0
497 1 3 0.0 58.460981 43.293068 19.175000 0 0 0
498 1 3 0.0 59.857862 43.550458 19.175000 0 0 0
499 1 3 0.0 60.333397 44.888888 19.175000 0 0 0
500 1 3 0.0 61.730278 45.146279 19.175000 0 0 0
501 1 3 0.0 62.205812 46.484709 19.175000 0 0 0
502 1 3 0.0 63.602694 46.742099 19.175000 0 0 0
503 1 3 0.0 64.078228 48.080529 19.175000 0 0 0
504 1 3 0.0 65.475110 48.337920 19.175000 0 0 0
505 1 3 0.0 65.950644 49.676350 19.175000 0 0 0
506 1 3 0.0 67.347525 49.933740 19.175000 0 0 0
507 1 3 0.0 67.823060 51.272170 19.175000 0 0 0
508 1 3 0.0 69.219941 51.529561 19.175000 0 0 0
509 1 3 0.0 69.695475 52.867991 19.175000 0 0 0
510 1 3 0.0 71.092357 53.125381 19.175000 0 0 0
511 1 3 0.0 71.567891 54.463812 19.175000 0 0 0
512 1 3 0.0 72.964773 54.721202 19.175000 0 0 0
513 1 3 0.0 73.440307 56.059632 19.175000 0 0 0
514 1 3 0.0 74.837188 56.317023 19.175000 0 0 0
515 1 3 0.0 75.312723 57.655453 19.175000 0 0 0
516 1 3 0.0 76.709604 57.912843 19.175000 0 0 0
517 1 3 0.0 77.185138 59.251273 19.175000 0 0 0
518 1 3 0.0 78.582020 59.508664 19.175000 0 0 0
519 1 3 0.0 79.057554 60.847094 19.175000 0 0 0
520 1 3 0.0 80.454436 61.104484 19.175000 0 0 0
521 1 3 0.0 80.929970 62.442914 19.175000 0 0 0
522 1 3 0.0 82.326851 62.700305 19.175000 0 0 0
523 1 3 0.0 82.802386 64.038735 19.175000 0 0 0
524 1 3 0.0 84.199267 64.296125 19.175000 0 0 0
525 1 3 0.0 84.674801 65.634556 19.175000 0 0 0
526 1 3 0.0 86.071683 65.891946 19.175000 0 0 0
527 1 3 0.0 86.547217 67.230376 19.175000 0 0 0
528 1 3 0.0 87.944099 67.487767 19.175000 0 0 0
529 1 3 0.0 88.419633 68.826197 19.175000 0 0 0
530 1 3 0.0 89.816514 69.083587 19.175000 0 0 0
531 1 3 0.0 90.292049 70.422017 19.175000 0 0 0
532 1 3 0.0 91.688930 70.679408 19.175000 0 0 0
533 1 3 0.0 92.164464 72.017838 19.175000 0 0 0
534 1 3 0.0 93.561346 72.275228 19.175000 0 0 0
535 1 3 0.0 94.036880 73.613658 19.175000 0 0 0
536 1 3 0.0 95.433762 73.871049 19.175000 0 0 0
537 1 3 0.0 95.909296 75.209479 19.175000 0 0 0
538 1 3 0.0 97.306177 75.466869 19.175000 0 0 0
539 1 3 0.0 97.781712 76.805300 19.175000 0 0 0
540 1 3 0.0 99.178593 77.062690 19.175000 0 0 0
541 1 3 0.0 99.654127 78.401120 19.175000 0 0 0
542 1 3 0.0 101.051009 78.658511 19.175000 0 0 0
543 1 3 0.0 101.526543 79.996941 19.175000 0 0 0
544 1 3 0.0 102.923425 80.254331 19.175000 0 0 0
545 1 3 0.0 103.398959 81.592761 19.175000 0 0 0
546 1 3 0.0 104.795840 81.850152 19.175000 0 0 0
547 1 3 0.0 105.271375 83.188582 19.175000 0 0 0
548 1 3 0.0 106.668256 83.445972 19.175000 0 0 0
549 1 3 0.0 107.143790 84.784402 19.175000 0 0 0
550 1 3 0.0 108.540672 85.041793 19.175000 0 0 0
551 1 3 0.0 109.016206 86.380223 19.175000 0 0 0
552 1 3 0.0 110.413088 86.637613 19.175000 0 0 0
553 1 3 0.0 110.888622 87.976044 19.175000 0 0 0
554 1 3 0.0 61.373627 0.051478 19.175000 0 0 0
555 1 3 0.0 61.849162 1.389908 19.175000 0 0 0
556 1 3 0.0 63.246043 1.647299 19.175000 0 0 0
557 1 3 0.0 63.721577 2.985729 19.175000 0 0 0
558 1 3 0.0 65.118459 3.243119 19.175000 0 0 0
559 1 3 0.0 65.593993 4.581549 19.175000 0 0 0
560 1 3 0.0 66.990875 4.838940 19.175000 0 0 0
561 1 3 0.0 67.466409 6.177370 19.175000 0 0 0
562 1 3 0.0 68.863290 6.434760 19.175000 0 0 0
563 1 3 0.0 69.338825 7.773190 19.175000 0 0 0
564 1 3 0.0 70.735706 8.030581 19.175000 0 0 0
565 1 3 0.0 71.211240 9.369011 19.175000 0 0 0
566 1 3 0.0 72.608122 9.626401 19.175000 0 0 0
567 1 3 0.0 73.083656 10.964832 19.175000 0 0 0
568 1 3 0.0 74.480538 11.222222 19.175000 0 0 0
569 1 3 0.0 74.956072 12.560652 19.175000 0 0 0
570 1 3 0.0 76.352954 12.818043 19.175000 0 0 0
571 1 3 0.0 76.828488 14.156473 19.175000 0 0 0
572 1 3 0.0 78.225369 14.413863 19.175000 0 0 0
573 1 3 0.0 78.700903 15.752293 19.175000 0 0 0
574 1 3 0.0 80.097785 16.009684 19.175000 0 0 0
575 1 3 0.0 80.573319 17.348114 19.175000 0 0 0
576 1 3 0.0 81.970201 17.605504 19.175000 0 0 0
577 1 3 0.0 82.445735 18.943935 19.175000 0 0 0
578 1 3 0.0 83.842617 19.201325 19.175000 0 0 0
579 1 3 0.0 84.318151 20.539755 19.175000 0 0 0
580 1 3 0.0 85.715032 20.797145 19.175000 0 0 0
581 1 3 0.0 86.190567 22.135576 19.175000 0 0 0
582 1 3 0.0 87.587448 22.392966 19.175000 0 0 0
583 1 3 0.0 88.062982 23.731396 19.175000 0 0 0
584 1 3 0.0 89.459864 23.988787 19.175000 0 0 0
585 1 3 0.0 89.935398 25.327217 19.175000 0 0 0
586 1 3 0.0 91.332280 25.584607 19.175000 0 0 0
587 1 3 0.0 91.807814 26.923037 19.175000 0 0 0
588 1 3 0.0 93.204695 27.180428 19.175000 0 0 0
589 1 3 0.0 93.680229 28.518858 19.175000 0 0 0
590 1 3 0.0 95.077111 28.776248 19.175000 0 0 0
591 1 3 0.0 95.552645 30.114678 19.175000 0 0 0
592 1 3 0.0 96.949527 30.372069 19.175000 0 0 0
593 1 3 0.0 97.425061 31.710499 19.175000 0 0 0
594 1 3 0.0 98.821943 31.967889 19.175000 0 0 0
595 1 3 0.0 99.297477 33.306320 19.175000 0 0 0
596 1 3 0.0 100.694358 33.563710 19.175000 0 0 0
597 1 3 0.0 101.169892 34.902140 19.175000 0 0 0
598 1 3 0.0 102.566774 35.159531 19.175000 0 0 0
599 1 3 0.0 103.042308 36.497961 19.175000 0 0 0
600 1 3 0.0 104.439190 36.755351 19.175000 0 0 0
601 1 3 0.0 104.914724 38.093781 19.175000 0 0 0
602 1 3 0.0 106.311606 38.351172 19.175000 0 0 0
603 1 3 0.0 106.787140 39.689602 19.175000 0 0 0
604 1 3 0.0 108.184021 39.946992 19.175000 0 0 0
605 1 3 0.0 108.659556 41.285422 19.175000 0 0 0
606 1 3 0.0 110.056437 41.542813 19.175000 0 0 0
607 1 3 0.0 110.531971 42.881243 19.175000 0 0 0
608 1 3 0.0 111.928853 43.138633 19.175000 0 0 0
609 1 3 0.0 112.404387 44.477064 19.175000 0 0 0
610 1 3 0.0 113.801269 44.734454 19.175000 0 0 0
611 1 3 0.0 114.276803 46.072884 19.175000 0 0 0
612 1 3 0.0 115.673684 46.330275 19.175000 0 0 0
613 1 3 0.0 116.149219 47.668705 19.175000 0 0 0
614 1 3 0.0 117.546100 47.926095 19.175000 0 0 0
615 1 3 0.0 118.021634 49.264525 19.175000 0 0 0
616 1 3 0.0 119.418516 49.521916 19.175000 0 0 0
617 1 3 0.0 119.894050 50.860346 19.175000 0 0 0
618 1 3 0.0 121.290932 51.117736 19.175000 0 0 0
619 1 3 0.0 121.766466 52.456166 19.175000 0 0 0
620 1 3 0.0 123.163347 52.713557 19.175000 0 0 0