ITEM: TIMESTEP
0
ITEM: NUMBER OF ATOMS
17714
ITEM: BOX BOUNDS xy xz yz pp pp pp
0.0000000000000000e+00 2.0296650000000000e+02 6.7655500000000004e+01
0.0000000000000000e+00 1.1718276341100000e+02 0.0000000000000000e+00
0.0000000000000000e+00 3.5000000000000000e+01 0.0000000000000000e+00
ITEM: ATOMS id type x y z ix iy iz 
1 3               1.2301             0.710199               19.175 0 0 0 
2 3               2.4602             1.420397               19.175 0 0 0 
3 3               2.4602             2.840794               19.175 0 0 0 
4 3               3.6903             3.550993               19.175 0 0 0 
5 3               3.6903              4.97139               19.175 0 0 0 
6 3               4.9204             5.681588               19.175 0 0 0 
7 3               4.9204             7.101986               19.175 0 0 0 
8 3               6.1505             7.812184               19.175 0 0 0 
9 3               6.1505             9.232581               19.175 0 0 0 
10 3               7.3806              9.94278               19.175 0 0 0 
11 3               7.3806            11.363177               19.175 0 0 0 
12 3               8.6107            12.073376               19.175 0 0 0 
13 3               8.6107            13.493773               19.175 0 0 0 
14 3               9.8408            14.203971               19.175 0 0 0 
15 3               9.8408            15.624368               19.175 0 0 0 
16 3              11.0709            16.334567               19.175 0 0 0 
17 3              11.0709            17.754964               19.175 0 0 0 
18 3               12.301            18.465163               19.175 0 0 0 
19 3               12.301             19.88556               19.175 0 0 0 
20 3              13.5311            20.595758               19.175 0 0 0 
21 3              13.5311            22.016156               19.175 0 0 0 
22 3              14.7612            22.726354               19.175 0 0 0 
23 3              14.7612            24.146751               19.175 0 0 0 
24 3              15.9913             24.85695               19.175 0 0 0 
25 3              15.9913            26.277347               19.175 0 0 0 
26 3              17.2214            26.987545               19.175 0 0 0 
27 3              17.2214            28.407943               19.175 0 0 0 
28 3              18.4515            29.118141               19.175 0 0 0 
29 3              18.4515            30.538538               19.175 0 0 0 
30 3              19.6816            31.248737               19.175 0 0 0 
31 3              19.6816            32.669134               19.175 0 0 0 
32 3              20.9117            33.379333               19.175 0 0 0 
33 3              20.9117             34.79973               19.175 0 0 0 
34 3              22.1418            35.509928               19.175 0 0 0 
35 3              22.1418            36.930325               19.175 0 0 0 
36 3              23.3719            37.640524               19.175 0 0 0 
37 3              23.3719            39.060921               19.175 0 0 0 
38 3               24.602             39.77112               19.175 0 0 0 
39 3               24.602            41.191517               19.175 0 0 0 
40 3              25.8321            41.901715               19.175 0 0 0 
41 3              25.8321            43.322113               19.175 0 0 0 
42 3              27.0622            44.032311               19.175 0 0 0 
43 3              27.0622            45.452708               19.175 0 0 0 
44 3              28.2923            46.162907               19.175 0 0 0 
45 3              28.2923            47.583304               19.175 0 0 0 
46 3              29.5224            48.293502               19.175 0 0 0 
47 3              29.5224              49.7139               19.175 0 0 0 
48 3              30.7525            50.424098               19.175 0 0 0 
49 3              30.7525            51.844495               19.175 0 0 0 
50 3              31.9826            52.554694               19.175 0 0 0 
51 3              31.9826            53.975091               19.175 0 0 0 
52 3              33.2127             54.68529               19.175 0 0 0 
53 3              33.2127            56.105687               19.175 0 0 0 
54 3              34.4428            56.815885               19.175 0 0 0 
55 3              34.4428            58.236282               19.175 0 0 0 
56 3              35.6729            58.946481               19.175 0 0 0 
57 3              35.6729            60.366878               19.175 0 0 0 
58 3               36.903            61.077077               19.175 0 0 0 
59 3               36.903            62.497474               19.175 0 0 0 
60 3              38.1331            63.207672               19.175 0 0 0 
61 3              38.1331             64.62807               19.175 0 0 0 
62 3              39.3632            65.338268               19.175 0 0 0 
63 3              39.3632            66.758665               19.175 0 0 0 
64 3              40.5933            67.468864               19.175 0 0 0 
65 3              40.5933            68.889261               19.175 0 0 0 
66 3              41.8234            69.599459               19.175 0 0 0 
67 3              41.8234            71.019857               19.175 0 0 0 
68 3              43.0535            71.730055               19.175 0 0 0 
69 3              43.0535            73.150452               19.175 0 0 0 
70 3              44.2836            73.860651               19.175 0 0 0 
71 3              44.2836            75.281048               19.175 0 0 0 
72 3              45.5137            75.991247               19.175 0 0 0 
73 3              45.5137            77.411644               19.175 0 0 0 
74 3              46.7438            78.121842               19.175 0 0 0 
75 3              46.7438            79.542239               19.175 0 0 0 
76 3              47.9739            80.252438               19.175 0 0 0 
77 3              47.9739            81.672835               19.175 0 0 0 
78 3               49.204            82.383034               19.175 0 0 0 
79 3               49.204            83.803431               19.175 0 0 0 
80 3              50.4341            84.513629               19.175 0 0 0 
81 3              50.4341            85.934026               19.175 0 0 0 
82 3              51.6642            86.644225               19.175 0 0 0 
83 3              51.6642            88.064622               19.175 0 0 0 
84 3              52.8943            88.774821               19.175 0 0 0 
85 3              52.8943            90.195218               19.175 0 0 0 
86 3              54.1244            90.905416               19.175 0 0 0 
87 3              54.1244            92.325814               19.175 0 0 0 
88 3              55.3545            93.036012               19.175 0 0 0 
89 3              55.3545            94.456409               19.175 0 0 0 
90 3              56.5846            95.166608               19.175 0 0 0 
91 3              56.5846            96.587005               19.175 0 0 0 
92 3              57.8147            97.297204               19.175 0 0 0 
93 3              57.8147            98.717601               19.175 0 0 0 
94 3              59.0448            99.427799               19.175 0 0 0 
95 3              59.0448           100.848196               19.175 0 0 0 
96 3              60.2749           101.558395               19.175 0 0 0 
97 3              60.2749           102.978792               19.175 0 0 0 
98 3               61.505           103.688991               19.175 0 0 0 
99 3               61.505           105.109388               19.175 0 0 0 
100 3              62.7351           105.819586               19.175 0 0 0 
101 3              62.7351           107.239983               19.175 0 0 0 
102 3              63.9652           107.950182               19.175 0 0 0 
103 3              63.9652           109.370579               19.175 0 0 0 
104 3              65.1953           110.080778               19.175 0 0 0 
105 3              65.1953           111.501175               19.175 0 0 0 
106 3              66.4254           112.211373               19.175 0 0 0 
107 3              66.4254           113.631771               19.175 0 0 0 
108 3              67.6555           114.341969               19.175 0 0 0 
109 3              67.6555           115.762366               19.175 0 0 0 
110 3              68.8856           116.472565               19.175 0 0 0 
111 3               3.6903             0.710199               19.175 0 0 0 
112 3               4.9204             1.420397               19.175 0 0 0 
113 3               4.9204             2.840794               19.175 0 0 0 
114 3               6.1505             3.550993               19.175 0 0 0 
115 3               6.1505              4.97139               19.175 0 0 0 
116 3               7.3806             5.681588               19.175 0 0 0 
117 3               7.3806             7.101986               19.175 0 0 0 
118 3               8.6107             7.812184               19.175 0 0 0 
119 3               8.6107             9.232581               19.175 0 0 0 
120 3               9.8408              9.94278               19.175 0 0 0 
121 3               9.8408            11.363177               19.175 0 0 0 
122 3              11.0709            12.073376               19.175 0 0 0 
123 3              11.0709            13.493773               19.175 0 0 0 
124 3               12.301            14.203971               19.175 0 0 0 
125 3               12.301            15.624368               19.175 0 0 0 
126 3              13.5311            16.334567               19.175 0 0 0 
127 3              13.5311            17.754964               19.175 0 0 0 
128 3              14.7612            18.465163               19.175 0 0 0 
129 3              14.7612             19.88556               19.175 0 0 0 
130 3              15.9913            20.595758               19.175 0 0 0 
131 3              15.9913            22.016156               19.175 0 0 0 
132 3              17.2214            22.726354               19.175 0 0 0 
133 3              17.2214            24.146751               19.175 0 0 0 
134 3              18.4515             24.85695               19.175 0 0 0 
135 3              18.4515            26.277347               19.175 0 0 0 
136 3              19.6816            26.987545               19.175 0 0 0 
137 3              19.6816            28.407943               19.175 0 0 0 
138 3              20.9117            29.118141               19.175 0 0 0 
139 3              20.9117            30.538538               19.175 0 0 0 
140 3              22.1418            31.248737               19.175 0 0 0 
141 3              22.1418            32.669134               19.175 0 0 0 
142 3              23.3719            33.379333               19.175 0 0 0 
143 3              23.3719             34.79973               19.175 0 0 0 
144 3               24.602            35.509928               19.175 0 0 0 
145 3               24.602            36.930325               19.175 0 0 0 
146 3              25.8321            37.640524               19.175 0 0 0 
147 3              25.8321            39.060921               19.175 0 0 0 
148 3              27.0622             39.77112               19.175 0 0 0 
149 3              27.0622            41.191517               19.175 0 0 0 
150 3              28.2923            41.901715               19.175 0 0 0 
151 3              28.2923            43.322113               19.175 0 0 0 
152 3              29.5224            44.032311               19.175 0 0 0 
153 3              29.5224            45.452708               19.175 0 0 0 
154 3              30.7525            46.162907               19.175 0 0 0 
155 3              30.7525            47.583304               19.175 0 0 0 
156 3              31.9826            48.293502               19.175 0 0 0 
157 3              31.9826              49.7139               19.175 0 0 0 
158 3              33.2127            50.424098               19.175 0 0 0 
159 3              33.2127            51.844495               19.175 0 0 0 
160 3              34.4428            52.554694               19.175 0 0 0 
161 3              34.4428            53.975091               19.175 0 0 0 
162 3              35.6729             54.68529               19.175 0 0 0 
163 3              35.6729            56.105687               19.175 0 0 0 
164 3               36.903            56.815885               19.175 0 0 0 
165 3               36.903            58.236282               19.175 0 0 0 
166 3              38.1331            58.946481               19.175 0 0 0 
167 3              38.1331            60.366878               19.175 0 0 0 
168 3              39.3632            61.077077               19.175 0 0 0 
169 3              39.3632            62.497474               19.175 0 0 0 
170 3              40.5933            63.207672               19.175 0 0 0 
171 3              40.5933             64.62807               19.175 0 0 0 
172 3              41.8234            65.338268               19.175 0 0 0 
173 3              41.8234            66.758665               19.175 0 0 0 
174 3              43.0535            67.468864               19.175 0 0 0 
175 3              43.0535            68.889261               19.175 0 0 0 
176 3              44.2836            69.599459               19.175 0 0 0 
177 3              44.2836            71.019857               19.175 0 0 0 
178 3              45.5137            71.730055               19.175 0 0 0 
179 3              45.5137            73.150452               19.175 0 0 0 
180 3              46.7438            73.860651               19.175 0 0 0 
181 3              46.7438            75.281048               19.175 0 0 0 
182 3              47.9739            75.991247               19.175 0 0 0 
183 3              47.9739            77.411644               19.175 0 0 0 
184 3               49.204            78.121842               19.175 0 0 0 
185 3               49.204            79.542239               19.175 0 0 0 
186 3              50.4341            80.252438               19.175 0 0 0 
187 3              50.4341            81.672835               19.175 0 0 0 
188 3              51.6642            82.383034               19.175 0 0 0 
189 3              51.6642            83.803431               19.175 0 0 0 
190 3              52.8943            84.513629               19.175 0 0 0 
191 3              52.8943            85.934026               19.175 0 0 0 
192 3              54.1244            86.644225               19.175 0 0 0 
193 3              54.1244            88.064622               19.175 0 0 0 
194 3              55.3545            88.774821               19.175 0 0 0 
195 3              55.3545            90.195218               19.175 0 0 0 
196 3              56.5846            90.905416               19.175 0 0 0 
197 3              56.5846            92.325814               19.175 0 0 0 
198 3              57.8147            93.036012               19.175 0 0 0 
199 3              57.8147            94.456409               19.175 0 0 0 
200 3              59.0448            95.166608               19.175 0 0 0 
201 3              59.0448            96.587005               19.175 0 0 0 
202 3              60.2749            97.297204               19.175 0 0 0 
203 3              60.2749            98.717601               19.175 0 0 0 
204 3               61.505            99.427799               19.175 0 0 0 
205 3               61.505           100.848196               19.175 0 0 0 
206 3              62.7351           101.558395               19.175 0 0 0 
207 3              62.7351           102.978792               19.175 0 0 0 
208 3              63.9652           103.688991               19.175 0 0 0 
209 3              63.9652           105.109388               19.175 0 0 0 
210 3              65.1953           105.819586               19.175 0 0 0 
211 3              65.1953           107.239983               19.175 0 0 0 
212 3              66.4254           107.950182               19.175 0 0 0 
213 3              66.4254           109.370579               19.175 0 0 0 
214 3              67.6555           110.080778               19.175 0 0 0 
215 3              67.6555           111.501175               19.175 0 0 0 
216 3              68.8856           112.211373               19.175 0 0 0 
217 3              68.8856           113.631771               19.175 0 0 0 
218 3              70.1157           114.341969               19.175 0 0 0 
219 3              70.1157           115.762366               19.175 0 0 0 
220 3              71.3458           116.472565               19.175 0 0 0 
221 3               6.1505             0.710199               19.175 0 0 0 
222 3               7.3806             1.420397               19.175 0 0 0 
223 3               7.3806             2.840794               19.175 0 0 0 
224 3               8.6107             3.550993               19.175 0 0 0 
225 3               8.6107              4.97139               19.175 0 0 0 
226 3               9.8408             5.681588               19.175 0 0 0 
227 3               9.8408             7.101986               19.175 0 0 0 
228 3              11.0709             7.812184               19.175 0 0 0 
229 3              11.0709             9.232581               19.175 0 0 0 
230 3               12.301              9.94278               19.175 0 0 0 
231 3               12.301            11.363177               19.175 0 0 0 
232 3              13.5311            12.073376               19.175 0 0 0 
233 3              13.5311            13.493773               19.175 0 0 0 
234 3              14.7612            14.203971               19.175 0 0 0 
235 3              14.7612            15.624368               19.175 0 0 0 
236 3              15.9913            16.334567               19.175 0 0 0 
237 3              15.9913            17.754964               19.175 0 0 0 
238 3              17.2214            18.465163               19.175 0 0 0 
239 3              17.2214             19.88556               19.175 0 0 0 
240 3              18.4515            20.595758               19.175 0 0 0 
241 3              18.4515            22.016156               19.175 0 0 0 
242 3              19.6816            22.726354               19.175 0 0 0 
243 3              19.6816            24.146751               19.175 0 0 0 
244 3              20.9117             24.85695               19.175 0 0 0 
245 3              20.9117            26.277347               19.175 0 0 0 
246 3              22.1418            26.987545               19.175 0 0 0 
247 3              22.1418            28.407943               19.175 0 0 0 
248 3              23.3719            29.118141               19.175 0 0 0 
249 3              23.3719            30.538538               19.175 0 0 0 
250 3               24.602            31.248737               19.175 0 0 0 
251 3               24.602            32.669134               19.175 0 0 0 
252 3              25.8321            33.379333               19.175 0 0 0 
253 3              25.8321             34.79973               19.175 0 0 0 
254 3              27.0622            35.509928               19.175 0 0 0 
255 3              27.0622            36.930325               19.175 0 0 0 
256 3              28.2923            37.640524               19.175 0 0 0 
257 3              28.2923            39.060921               19.175 0 0 0 
258 3              29.5224             39.77112               19.175 0 0 0 
259 3              29.5224            41.191517               19.175 0 0 0 
260 3              30.7525            41.901715               19.175 0 0 0 
261 3              30.7525            43.322113               19.175 0 0 0 
262 3              31.9826            44.032311               19.175 0 0 0 
263 3              31.9826            45.452708               19.175 0 0 0 
264 3              33.2127            46.162907               19.175 0 0 0 
265 3              33.2127            47.583304               19.175 0 0 0 
266 3              34.4428            48.293502               19.175 0 0 0 
267 3              34.4428              49.7139               19.175 0 0 0 
268 3              35.6729            50.424098               19.175 0 0 0 
269 3              35.6729            51.844495               19.175 0 0 0 
270 3               36.903            52.554694               19.175 0 0 0 
271 3               36.903            53.975091               19.175 0 0 0 
272 3              38.1331             54.68529               19.175 0 0 0 
273 3              38.1331            56.105687               19.175 0 0 0 
274 3              39.3632            56.815885               19.175 0 0 0 
275 3              39.3632            58.236282               19.175 0 0 0 
276 3              40.5933            58.946481               19.175 0 0 0 
277 3              40.5933            60.366878               19.175 0 0 0 
278 3              41.8234            61.077077               19.175 0 0 0 
279 3              41.8234            62.497474               19.175 0 0 0 
280 3              43.0535            63.207672               19.175 0 0 0 
281 3              43.0535             64.62807               19.175 0 0 0 
282 3              44.2836            65.338268               19.175 0 0 0 
283 3              44.2836            66.758665               19.175 0 0 0 
284 3              45.5137            67.468864               19.175 0 0 0 
285 3              45.5137            68.889261               19.175 0 0 0 
286 3              46.7438            69.599459               19.175 0 0 0 
287 3              46.7438            71.019857               19.175 0 0 0 
288 3              47.9739            71.730055               19.175 0 0 0 
289 3              47.9739            73.150452               19.175 0 0 0 
290 3               49.204            73.860651               19.175 0 0 0 
291 3               49.204            75.281048               19.175 0 0 0 
292 3              50.4341            75.991247               19.175 0 0 0 
293 3              50.4341            77.411644               19.175 0 0 0 
294 3              51.6642            78.121842               19.175 0 0 0 
295 3              51.6642            79.542239               19.175 0 0 0 
296 3              52.8943            80.252438               19.175 0 0 0 
297 3              52.8943            81.672835               19.175 0 0 0 
298 3              54.1244            82.383034               19.175 0 0 0 
299 3              54.1244            83.803431               19.175 0 0 0 
300 3              55.3545            84.513629               19.175 0 0 0 
301 3              55.3545            85.934026               19.175 0 0 0 
302 3              56.5846            86.644225               19.175 0 0 0 
303 3              56.5846            88.064622               19.175 0 0 0 
304 3              57.8147            88.774821               19.175 0 0 0 
305 3              57.8147            90.195218               19.175 0 0 0 
306 3              59.0448            90.905416               19.175 0 0 0 
307 3              59.0448            92.325814               19.175 0 0 0 
308 3              60.2749            93.036012               19.175 0 0 0 
309 3              60.2749            94.456409               19.175 0 0 0 
310 3               61.505            95.166608               19.175 0 0 0 
311 3               61.505            96.587005               19.175 0 0 0 
312 3              62.7351            97.297204               19.175 0 0 0 
313 3              62.7351            98.717601               19.175 0 0 0 
314 3              63.9652            99.427799               19.175 0 0 0 
315 3              63.9652           100.848196               19.175 0 0 0 
316 3              65.1953           101.558395               19.175 0 0 0 
317 3              65.1953           102.978792               19.175 0 0 0 
318 3              66.4254           103.688991               19.175 0 0 0 
319 3              66.4254           105.109388               19.175 0 0 0 
320 3              67.6555           105.819586               19.175 0 0 0 
321 3              67.6555           107.239983               19.175 0 0 0 
322 3              68.8856           107.950182               19.175 0 0 0 
323 3              68.8856           109.370579               19.175 0 0 0 
324 3              70.1157           110.080778               19.175 0 0 0 
325 3              70.1157           111.501175               19.175 0 0 0 
326 3              71.3458           112.211373               19.175 0 0 0 
327 3              71.3458           113.631771               19.175 0 0 0 
328 3              72.5759           114.341969               19.175 0 0 0 
329 3              72.5759           115.762366               19.175 0 0 0 
330 3               73.806           116.472565               19.175 0 0 0 
331 3               8.6107             0.710199               19.175 0 0 0 
332 3               9.8408             1.420397               19.175 0 0 0 
333 3               9.8408             2.840794               19.175 0 0 0 
334 3              11.0709             3.550993               19.175 0 0 0 
335 3              11.0709              4.97139               19.175 0 0 0 
336 3               12.301             5.681588               19.175 0 0 0 
337 3               12.301             7.101986               19.175 0 0 0 
338 3              13.5311             7.812184               19.175 0 0 0 
339 3              13.5311             9.232581               19.175 0 0 0 
340 3              14.7612              9.94278               19.175 0 0 0 
341 3              14.7612            11.363177               19.175 0 0 0 
342 3              15.9913            12.073376               19.175 0 0 0 
343 3              15.9913            13.493773               19.175 0 0 0 
344 3              17.2214            14.203971               19.175 0 0 0 
345 3              17.2214            15.624368               19.175 0 0 0 
346 3              18.4515            16.334567               19.175 0 0 0 
347 3              18.4515            17.754964               19.175 0 0 0 
348 3              19.6816            18.465163               19.175 0 0 0 
349 3              19.6816             19.88556               19.175 0 0 0 
350 3              20.9117            20.595758               19.175 0 0 0 
351 3              20.9117            22.016156               19.175 0 0 0 
352 3              22.1418            22.726354               19.175 0 0 0 
353 3              22.1418            24.146751               19.175 0 0 0 
354 3              23.3719             24.85695               19.175 0 0 0 
355 3              23.3719            26.277347               19.175 0 0 0 
356 3               24.602            26.987545               19.175 0 0 0 
357 3               24.602            28.407943               19.175 0 0 0 
358 3              25.8321            29.118141               19.175 0 0 0 
359 3              25.8321            30.538538               19.175 0 0 0 
360 3              27.0622            31.248737               19.175 0 0 0 
361 3              27.0622            32.669134               19.175 0 0 0 
362 3              28.2923            33.379333               19.175 0 0 0 
363 3              28.2923             34.79973               19.175 0 0 0 
364 3              29.5224            35.509928               19.175 0 0 0 
365 3              29.5224            36.930325               19.175 0 0 0 
366 3              30.7525            37.640524               19.175 0 0 0 
367 3              30.7525            39.060921               19.175 0 0 0 
368 3              31.9826             39.77112               19.175 0 0 0 
369 3              31.9826            41.191517               19.175 0 0 0 
370 3              33.2127            41.901715               19.175 0 0 0 
371 3              33.2127            43.322113               19.175 0 0 0 
372 3              34.4428            44.032311               19.175 0 0 0 
373 3              34.4428            45.452708               19.175 0 0 0 
374 3              35.6729            46.162907               19.175 0 0 0 
375 3              35.6729            47.583304               19.175 0 0 0 
376 3               36.903            48.293502               19.175 0 0 0 
377 3               36.903              49.7139               19.175 0 0 0 
378 3              38.1331            50.424098               19.175 0 0 0 
379 3              38.1331            51.844495               19.175 0 0 0 
380 3              39.3632            52.554694               19.175 0 0 0 
381 3              39.3632            53.975091               19.175 0 0 0 
382 3              40.5933             54.68529               19.175 0 0 0 
383 3              40.5933            56.105687               19.175 0 0 0 
384 3              41.8234            56.815885               19.175 0 0 0 
385 3              41.8234            58.236282               19.175 0 0 0 
386 3              43.0535            58.946481               19.175 0 0 0 
387 3              43.0535            60.366878               19.175 0 0 0 
388 3              44.2836            61.077077               19.175 0 0 0 
389 3              44.2836            62.497474               19.175 0 0 0 
390 3              45.5137            63.207672               19.175 0 0 0 
391 3              45.5137             64.62807               19.175 0 0 0 